
     Program PWSCF v.7.1 starts on 30Jan2023 at 10: 4:36 

     This program is part of the open-source Quantum ESPRESSO suite
     for quantum simulation of materials; please cite
         "P. Giannozzi et al., J. Phys.:Condens. Matter 21 395502 (2009);
         "P. Giannozzi et al., J. Phys.:Condens. Matter 29 465901 (2017);
         "P. Giannozzi et al., J. Chem. Phys. 152 154105 (2020);
          URL http://www.quantum-espresso.org", 
     in publications or presentations arising from this work. More details at
     http://www.quantum-espresso.org/quote

     Parallel version (MPI), running on    12 processors

     MPI processes distributed on     1 nodes
     122593 MiB available memory on the printing compute node when the environment starts

     Waiting for input...
     Reading input from standard input

     Current dimensions of program PWSCF are:
     Max number of different atomic species (ntypx) = 10
     Max number of k-points (npk) =  40000
     Max angular momentum in pseudopotentials (lmaxx) =  4
     file W.pbe-spn-kjpaw_psl.1.0.0.UPF: wavefunction(s)  6S 5P 5D renormalized
     file S.pbe-n-kjpaw_psl.1.0.0.UPF: wavefunction(s)  3S 3P renormalized
     file Se.pbe-dn-kjpaw_psl.1.0.0.UPF: wavefunction(s)  4S 4P 3D renormalized
     Message from routine setup:
     using ibrav=0 with symmetry is DISCOURAGED, use correct ibrav instead

     R & G space division:  proc/nbgrp/npool/nimage =      12
     Subspace diagonalization in iterative solution of the eigenvalue problem:
     a serial algorithm will be used


     Parallelization info
     --------------------
     sticks:   dense  smooth     PW     G-vecs:    dense   smooth      PW
     Min          49      49     15                 7805     7805    1255
     Max          50      50     16                 7840     7840    1268
     Sum         595     595    187                93827    93827   15121

     Using Slab Decomposition



     bravais-lattice index     =            0
     lattice parameter (alat)  =       6.0471  a.u.
     unit-cell volume          =    1496.1226 (a.u.)^3
     number of atoms/cell      =            3
     number of atomic types    =            3
     number of electrons       =        36.00
     number of Kohn-Sham states=           18
     kinetic-energy cutoff     =      60.0000  Ry
     charge density cutoff     =     240.0000  Ry
     scf convergence threshold =      1.0E-08
     mixing beta               =       0.5000
     number of iterations used =            8  plain     mixing
     Exchange-correlation= SLA  PW   PBX  PBC
                           (   1   4   3   4   0   0   0)

     celldm(1)=   6.047124  celldm(2)=   0.000000  celldm(3)=   0.000000
     celldm(4)=   0.000000  celldm(5)=   0.000000  celldm(6)=   0.000000

     crystal axes: (cart. coord. in units of alat)
               a(1) = (   1.000000   0.000000   0.000000 )  
               a(2) = (  -0.500000   0.866025   0.000000 )  
               a(3) = (   0.000000   0.000000   7.812500 )  

     reciprocal axes: (cart. coord. in units 2 pi/alat)
               b(1) = (  1.000000  0.577350 -0.000000 )  
               b(2) = (  0.000000  1.154701  0.000000 )  
               b(3) = (  0.000000 -0.000000  0.128000 )  


     PseudoPot. # 1 for W  read from file:
     /home/mainadmin/research/danu/pseudo/W.pbe-spn-kjpaw_psl.1.0.0.UPF
     MD5 check sum: 03c3df5b60893f488392c7401945500a
     Pseudo is Projector augmented-wave + core cor, Zval = 14.0
     Generated using &quot;atomic&quot; code by A. Dal Corso  v.6.2.2
     Shape of augmentation charge: PSQ
     Using radial grid of 1273 points,  6 beta functions with: 
                l(1) =   0
                l(2) =   0
                l(3) =   1
                l(4) =   1
                l(5) =   2
                l(6) =   2
     Q(r) pseudized with 0 coefficients 


     PseudoPot. # 2 for S  read from file:
     /home/mainadmin/research/danu/pseudo/S.pbe-n-kjpaw_psl.1.0.0.UPF
     MD5 check sum: fb45dfebcf3e72a4e1bd4a866ec2e262
     Pseudo is Projector augmented-wave + core cor, Zval =  6.0
     Generated using &quot;atomic&quot; code by A. Dal Corso  v.6.3
     Shape of augmentation charge: PSQ
     Using radial grid of 1151 points,  6 beta functions with: 
                l(1) =   0
                l(2) =   0
                l(3) =   1
                l(4) =   1
                l(5) =   2
                l(6) =   2
     Q(r) pseudized with 0 coefficients 


     PseudoPot. # 3 for Se read from file:
     /home/mainadmin/research/danu/pseudo/Se.pbe-dn-kjpaw_psl.1.0.0.UPF
     MD5 check sum: ac240dd2bae32a30e0bf3a38df9c8785
     Pseudo is Projector augmented-wave + core cor, Zval = 16.0
     Generated using &quot;atomic&quot; code by A. Dal Corso  v.6.3
     Shape of augmentation charge: PSQ
     Using radial grid of 1211 points,  6 beta functions with: 
                l(1) =   0
                l(2) =   0
                l(3) =   1
                l(4) =   1
                l(5) =   2
                l(6) =   2
     Q(r) pseudized with 0 coefficients 


     atomic species   valence    mass     pseudopotential
        W             14.00   183.84000     W ( 1.00)
        S              6.00    32.06500     S ( 1.00)
        Se            16.00    78.96000     Se( 1.00)

      6 Sym. Ops. (no inversion) found



   Cartesian axes

     site n.     atom                  positions (alat units)
         1           Se  tau(   1) = (   0.5000000   0.2886751   4.5312500  )
         2           W   tau(   2) = (  -0.0000000   0.5773503   3.9062500  )
         3           S   tau(   3) = (   0.5000000   0.2886751  -4.5312500  )

     number of k points=    61
                       cart. coord. in units 2pi/alat
        k(    1) = (   0.0000000   0.0000000   0.0000000), wk =   0.0034722
        k(    2) = (   0.0000000   0.0481125   0.0000000), wk =   0.0208333
        k(    3) = (   0.0000000   0.0962250   0.0000000), wk =   0.0208333
        k(    4) = (   0.0000000   0.1443376   0.0000000), wk =   0.0208333
        k(    5) = (   0.0000000   0.1924501   0.0000000), wk =   0.0208333
        k(    6) = (   0.0000000   0.2405626   0.0000000), wk =   0.0208333
        k(    7) = (   0.0000000   0.2886751   0.0000000), wk =   0.0208333
        k(    8) = (   0.0000000   0.3367877   0.0000000), wk =   0.0208333
        k(    9) = (   0.0000000   0.3849002   0.0000000), wk =   0.0208333
        k(   10) = (   0.0000000   0.4330127   0.0000000), wk =   0.0208333
        k(   11) = (   0.0000000   0.4811252   0.0000000), wk =   0.0208333
        k(   12) = (   0.0000000   0.5292377   0.0000000), wk =   0.0208333
        k(   13) = (   0.0000000  -0.5773503   0.0000000), wk =   0.0104167
        k(   14) = (   0.0416667   0.0721688   0.0000000), wk =   0.0208333
        k(   15) = (   0.0416667   0.1202813   0.0000000), wk =   0.0416667
        k(   16) = (   0.0416667   0.1683938   0.0000000), wk =   0.0416667
        k(   17) = (   0.0416667   0.2165064   0.0000000), wk =   0.0416667
        k(   18) = (   0.0416667   0.2646189   0.0000000), wk =   0.0416667
        k(   19) = (   0.0416667   0.3127314   0.0000000), wk =   0.0416667
        k(   20) = (   0.0416667   0.3608439   0.0000000), wk =   0.0416667
        k(   21) = (   0.0416667   0.4089564   0.0000000), wk =   0.0416667
        k(   22) = (   0.0416667   0.4570690   0.0000000), wk =   0.0416667
        k(   23) = (   0.0416667   0.5051815   0.0000000), wk =   0.0416667
        k(   24) = (   0.0416667   0.5532940   0.0000000), wk =   0.0416667
        k(   25) = (   0.0833333   0.1443376   0.0000000), wk =   0.0208333
        k(   26) = (   0.0833333   0.1924501   0.0000000), wk =   0.0416667
        k(   27) = (   0.0833333   0.2405626   0.0000000), wk =   0.0416667
        k(   28) = (   0.0833333   0.2886751   0.0000000), wk =   0.0416667
        k(   29) = (   0.0833333   0.3367877   0.0000000), wk =   0.0416667
        k(   30) = (   0.0833333   0.3849002   0.0000000), wk =   0.0416667
        k(   31) = (   0.0833333   0.4330127   0.0000000), wk =   0.0416667
        k(   32) = (   0.0833333   0.4811252   0.0000000), wk =   0.0416667
        k(   33) = (   0.0833333   0.5292377   0.0000000), wk =   0.0416667
        k(   34) = (   0.0833333   0.5773503   0.0000000), wk =   0.0208333
        k(   35) = (   0.1250000   0.2165064   0.0000000), wk =   0.0208333
        k(   36) = (   0.1250000   0.2646189   0.0000000), wk =   0.0416667
        k(   37) = (   0.1250000   0.3127314   0.0000000), wk =   0.0416667
        k(   38) = (   0.1250000   0.3608439   0.0000000), wk =   0.0416667
        k(   39) = (   0.1250000   0.4089564   0.0000000), wk =   0.0416667
        k(   40) = (   0.1250000   0.4570690   0.0000000), wk =   0.0416667
        k(   41) = (   0.1250000   0.5051815   0.0000000), wk =   0.0416667
        k(   42) = (   0.1250000   0.5532940   0.0000000), wk =   0.0416667
        k(   43) = (   0.1666667   0.2886751   0.0000000), wk =   0.0208333
        k(   44) = (   0.1666667   0.3367877   0.0000000), wk =   0.0416667
        k(   45) = (   0.1666667   0.3849002   0.0000000), wk =   0.0416667
        k(   46) = (   0.1666667   0.4330127   0.0000000), wk =   0.0416667
        k(   47) = (   0.1666667   0.4811252   0.0000000), wk =   0.0416667
        k(   48) = (   0.1666667   0.5292377   0.0000000), wk =   0.0416667
        k(   49) = (   0.1666667   0.5773503   0.0000000), wk =   0.0208333
        k(   50) = (   0.2083333   0.3608439   0.0000000), wk =   0.0208333
        k(   51) = (   0.2083333   0.4089564   0.0000000), wk =   0.0416667
        k(   52) = (   0.2083333   0.4570690   0.0000000), wk =   0.0416667
        k(   53) = (   0.2083333   0.5051815   0.0000000), wk =   0.0416667
        k(   54) = (   0.2083333   0.5532940   0.0000000), wk =   0.0416667
        k(   55) = (   0.2500000   0.4330127   0.0000000), wk =   0.0208333
        k(   56) = (   0.2500000   0.4811252   0.0000000), wk =   0.0416667
        k(   57) = (   0.2500000   0.5292377   0.0000000), wk =   0.0416667
        k(   58) = (   0.2500000   0.5773503   0.0000000), wk =   0.0208333
        k(   59) = (   0.2916667   0.5051815   0.0000000), wk =   0.0208333
        k(   60) = (   0.2916667   0.5532940   0.0000000), wk =   0.0416667
        k(   61) = (   0.3333333   0.5773503   0.0000000), wk =   0.0069444

     Dense  grid:    93827 G-vectors     FFT dimensions: (  30,  30, 240)

     Estimated max dynamical RAM per process >      48.49 MB

     Estimated total dynamical RAM >     581.89 MB

     Check: negative core charge=   -0.000001

     Initial potential from superposition of free atoms

     starting charge      35.9993, renormalised to      36.0000

     negative rho (up, down):  5.774E-04 0.000E+00
     Starting wfcs are   26 randomized atomic wfcs
     Checking if some PAW data can be deallocated... 

     total cpu time spent up to now is        2.0 secs

     Self-consistent Calculation

     iteration #  1     ecut=    60.00 Ry     beta= 0.50
     Davidson diagonalization with overlap
     ethr =  1.00E-02,  avg # of iterations =  2.0

     Threshold (ethr) on eigenvalues was too large:
     Diagonalizing with lowered threshold

     Davidson diagonalization with overlap
     ethr =  4.61E-04,  avg # of iterations =  2.1

     negative rho (up, down):  1.093E-03 0.000E+00

     total cpu time spent up to now is        6.5 secs

     total energy              =   -1228.30593631 Ry
     estimated scf accuracy    <       0.16848440 Ry

     iteration #  2     ecut=    60.00 Ry     beta= 0.50
     Davidson diagonalization with overlap
     ethr =  4.68E-04,  avg # of iterations =  8.3

     negative rho (up, down):  1.373E-03 0.000E+00

     total cpu time spent up to now is       10.1 secs

     total energy              =   -1228.07520829 Ry
     estimated scf accuracy    <       4.14452213 Ry

     iteration #  3     ecut=    60.00 Ry     beta= 0.50
     Davidson diagonalization with overlap
     ethr =  4.68E-04,  avg # of iterations =  7.7

     negative rho (up, down):  4.134E-03 0.000E+00

     total cpu time spent up to now is       13.6 secs

     total energy              =   -1228.37212475 Ry
     estimated scf accuracy    <       0.04895039 Ry

     iteration #  4     ecut=    60.00 Ry     beta= 0.50
     Davidson diagonalization with overlap
     ethr =  1.36E-04,  avg # of iterations =  4.7

     negative rho (up, down):  7.674E-03 0.000E+00

     total cpu time spent up to now is       16.3 secs

     total energy              =   -1228.37525931 Ry
     estimated scf accuracy    <       0.09856283 Ry

     iteration #  5     ecut=    60.00 Ry     beta= 0.50
     Davidson diagonalization with overlap
     ethr =  1.36E-04,  avg # of iterations =  3.6

     negative rho (up, down):  1.526E-02 0.000E+00

     total cpu time spent up to now is       18.8 secs

     total energy              =   -1228.38549959 Ry
     estimated scf accuracy    <       0.01713964 Ry

     iteration #  6     ecut=    60.00 Ry     beta= 0.50
     Davidson diagonalization with overlap
     ethr =  4.76E-05,  avg # of iterations =  3.4

     negative rho (up, down):  3.638E-03 0.000E+00

     total cpu time spent up to now is       21.3 secs

     total energy              =   -1228.36935746 Ry
     estimated scf accuracy    <       0.01765552 Ry

     iteration #  7     ecut=    60.00 Ry     beta= 0.50
     Davidson diagonalization with overlap
     ethr =  4.76E-05,  avg # of iterations =  5.0

     negative rho (up, down):  6.954E-03 0.000E+00

     total cpu time spent up to now is       24.2 secs

     total energy              =   -1228.38110122 Ry
     estimated scf accuracy    <       0.02933173 Ry

     iteration #  8     ecut=    60.00 Ry     beta= 0.50
     Davidson diagonalization with overlap
     ethr =  4.76E-05,  avg # of iterations =  2.0

     negative rho (up, down):  1.846E-03 0.000E+00

     total cpu time spent up to now is       26.5 secs

     total energy              =   -1228.37747871 Ry
     estimated scf accuracy    <       0.02026559 Ry

     iteration #  9     ecut=    60.00 Ry     beta= 0.50
     Davidson diagonalization with overlap
     ethr =  4.76E-05,  avg # of iterations =  2.0

     negative rho (up, down):  8.136E-04 0.000E+00

     total cpu time spent up to now is       28.9 secs

     total energy              =   -1228.37790737 Ry
     estimated scf accuracy    <       0.00883181 Ry

     iteration # 10     ecut=    60.00 Ry     beta= 0.50
     Davidson diagonalization with overlap
     ethr =  2.45E-05,  avg # of iterations =  4.0

     negative rho (up, down):  7.695E-04 0.000E+00

     total cpu time spent up to now is       31.4 secs

     total energy              =   -1228.37919577 Ry
     estimated scf accuracy    <       0.00066079 Ry

     iteration # 11     ecut=    60.00 Ry     beta= 0.50
     Davidson diagonalization with overlap
     ethr =  1.84E-06,  avg # of iterations =  5.0

     negative rho (up, down):  7.677E-04 0.000E+00

     total cpu time spent up to now is       34.2 secs

     total energy              =   -1228.37911220 Ry
     estimated scf accuracy    <       0.00093322 Ry

     iteration # 12     ecut=    60.00 Ry     beta= 0.50
     Davidson diagonalization with overlap
     ethr =  1.84E-06,  avg # of iterations =  4.3

     negative rho (up, down):  7.477E-04 0.000E+00

     total cpu time spent up to now is       36.8 secs

     total energy              =   -1228.37927253 Ry
     estimated scf accuracy    <       0.00022213 Ry

     iteration # 13     ecut=    60.00 Ry     beta= 0.50
     Davidson diagonalization with overlap
     ethr =  6.17E-07,  avg # of iterations =  2.0

     negative rho (up, down):  7.419E-04 0.000E+00

     total cpu time spent up to now is       39.0 secs

     total energy              =   -1228.37925405 Ry
     estimated scf accuracy    <       0.00010019 Ry

     iteration # 14     ecut=    60.00 Ry     beta= 0.50
     Davidson diagonalization with overlap
     ethr =  2.78E-07,  avg # of iterations =  4.4

     negative rho (up, down):  7.445E-04 0.000E+00

     total cpu time spent up to now is       41.8 secs

     total energy              =   -1228.37928314 Ry
     estimated scf accuracy    <       0.00005706 Ry

     iteration # 15     ecut=    60.00 Ry     beta= 0.50
     Davidson diagonalization with overlap
     ethr =  1.58E-07,  avg # of iterations =  1.0

     negative rho (up, down):  7.459E-04 0.000E+00

     total cpu time spent up to now is       43.8 secs

     total energy              =   -1228.37927874 Ry
     estimated scf accuracy    <       0.00004616 Ry

     iteration # 16     ecut=    60.00 Ry     beta= 0.50
     Davidson diagonalization with overlap
     ethr =  1.28E-07,  avg # of iterations =  1.8

     negative rho (up, down):  7.466E-04 0.000E+00

     total cpu time spent up to now is       45.9 secs

     total energy              =   -1228.37927785 Ry
     estimated scf accuracy    <       0.00001943 Ry

     iteration # 17     ecut=    60.00 Ry     beta= 0.50
     Davidson diagonalization with overlap
     ethr =  5.40E-08,  avg # of iterations =  3.4

     negative rho (up, down):  7.466E-04 0.000E+00

     total cpu time spent up to now is       48.3 secs

     total energy              =   -1228.37927939 Ry
     estimated scf accuracy    <       0.00000174 Ry

     iteration # 18     ecut=    60.00 Ry     beta= 0.50
     Davidson diagonalization with overlap
     ethr =  4.82E-09,  avg # of iterations =  6.2

     negative rho (up, down):  7.461E-04 0.000E+00

     total cpu time spent up to now is       51.5 secs

     total energy              =   -1228.37928047 Ry
     estimated scf accuracy    <       0.00000323 Ry

     iteration # 19     ecut=    60.00 Ry     beta= 0.50
     Davidson diagonalization with overlap
     ethr =  4.82E-09,  avg # of iterations =  1.0

     negative rho (up, down):  7.460E-04 0.000E+00

     total cpu time spent up to now is       53.5 secs

     total energy              =   -1228.37928035 Ry
     estimated scf accuracy    <       0.00000313 Ry

     iteration # 20     ecut=    60.00 Ry     beta= 0.50
     Davidson diagonalization with overlap
     ethr =  4.82E-09,  avg # of iterations =  1.0

     negative rho (up, down):  7.450E-04 0.000E+00

     total cpu time spent up to now is       55.5 secs

     total energy              =   -1228.37928005 Ry
     estimated scf accuracy    <       0.00000254 Ry

     iteration # 21     ecut=    60.00 Ry     beta= 0.50
     Davidson diagonalization with overlap
     ethr =  4.82E-09,  avg # of iterations =  2.7

     negative rho (up, down):  7.460E-04 0.000E+00

     total cpu time spent up to now is       57.7 secs

     total energy              =   -1228.37928039 Ry
     estimated scf accuracy    <       0.00000063 Ry

     iteration # 22     ecut=    60.00 Ry     beta= 0.50
     Davidson diagonalization with overlap
     ethr =  1.76E-09,  avg # of iterations =  3.4

     negative rho (up, down):  7.460E-04 0.000E+00

     total cpu time spent up to now is       60.2 secs

     total energy              =   -1228.37928035 Ry
     estimated scf accuracy    <       0.00000273 Ry

     iteration # 23     ecut=    60.00 Ry     beta= 0.50
     Davidson diagonalization with overlap
     ethr =  1.76E-09,  avg # of iterations =  1.0

     negative rho (up, down):  7.459E-04 0.000E+00

     total cpu time spent up to now is       62.2 secs

     total energy              =   -1228.37928048 Ry
     estimated scf accuracy    <       0.00000235 Ry

     iteration # 24     ecut=    60.00 Ry     beta= 0.50
     Davidson diagonalization with overlap
     ethr =  1.76E-09,  avg # of iterations =  1.0

     negative rho (up, down):  7.460E-04 0.000E+00

     total cpu time spent up to now is       64.2 secs

     total energy              =   -1228.37928037 Ry
     estimated scf accuracy    <       0.00000308 Ry

     iteration # 25     ecut=    60.00 Ry     beta= 0.50
     Davidson diagonalization with overlap
     ethr =  1.76E-09,  avg # of iterations =  1.0

     negative rho (up, down):  7.464E-04 0.000E+00

     total cpu time spent up to now is       66.1 secs

     total energy              =   -1228.37927901 Ry
     estimated scf accuracy    <       0.00000268 Ry

     iteration # 26     ecut=    60.00 Ry     beta= 0.50
     Davidson diagonalization with overlap
     ethr =  1.76E-09,  avg # of iterations =  7.6

     negative rho (up, down):  7.469E-04 0.000E+00

     total cpu time spent up to now is       70.0 secs

     total energy              =   -1228.37927924 Ry
     estimated scf accuracy    <       0.00001566 Ry

     iteration # 27     ecut=    60.00 Ry     beta= 0.50
     Davidson diagonalization with overlap
     ethr =  1.76E-09,  avg # of iterations =  6.3

     negative rho (up, down):  7.470E-04 0.000E+00

     total cpu time spent up to now is       73.2 secs

     total energy              =   -1228.37928008 Ry
     estimated scf accuracy    <       0.00000063 Ry

     iteration # 28     ecut=    60.00 Ry     beta= 0.50
     Davidson diagonalization with overlap
     ethr =  1.74E-09,  avg # of iterations =  3.0

     negative rho (up, down):  7.472E-04 0.000E+00

     total cpu time spent up to now is       75.6 secs

     total energy              =   -1228.37928014 Ry
     estimated scf accuracy    <       0.00000005 Ry

     iteration # 29     ecut=    60.00 Ry     beta= 0.50
     Davidson diagonalization with overlap
     ethr =  1.33E-10,  avg # of iterations =  5.6

     negative rho (up, down):  7.490E-04 0.000E+00

     total cpu time spent up to now is       78.6 secs

     End of self-consistent calculation

          k = 0.0000 0.0000 0.0000 ( 11811 PWs)   bands (ev):

   -75.2385 -48.4207 -48.4207 -48.4173 -48.4159 -48.4159 -39.4092 -39.1507
   -39.1507 -14.9932 -13.8033  -6.8569  -3.7197  -2.1972  -1.8504  -1.8504
    -0.7806  -0.7806

          k = 0.0000 0.0481 0.0000 ( 11811 PWs)   bands (ev):

   -75.2383 -48.4208 -48.4207 -48.4173 -48.4159 -48.4159 -39.4085 -39.1553
   -39.1518 -14.9684 -13.7841  -6.8179  -3.7253  -2.1813  -1.9293  -1.8221
    -0.8433  -0.8265

          k = 0.0000 0.0962 0.0000 ( 11801 PWs)   bands (ev):

   -75.2376 -48.4208 -48.4204 -48.4171 -48.4160 -48.4159 -39.4064 -39.1688
   -39.1550 -14.8945 -13.7270  -6.7025  -3.7428  -2.1657  -2.1277  -1.7396
    -1.0377  -0.9539

          k = 0.0000 0.1443 0.0000 ( 11801 PWs)   bands (ev):

   -75.2365 -48.4208 -48.4199 -48.4168 -48.4162 -48.4159 -39.4031 -39.1902
   -39.1602 -14.7737 -13.6336  -6.5165  -3.7748  -2.5095  -2.0743  -1.6104
    -1.3673  -1.1389

          k = 0.0000 0.1925 0.0000 ( 11789 PWs)   bands (ev):

   -75.2351 -48.4209 -48.4194 -48.4166 -48.4163 -48.4159 -39.3988 -39.2180
   -39.1669 -14.6096 -13.5068  -6.2708  -3.8283  -2.9523  -2.0273  -1.8008
    -1.4496  -1.3542

          k = 0.0000 0.2406 0.0000 ( 11797 PWs)   bands (ev):

   -75.2334 -48.4210 -48.4188 -48.4168 -48.4160 -48.4159 -39.3939 -39.2502
   -39.1748 -14.4076 -13.3510  -5.9830  -3.9244  -3.4469  -2.3075  -1.9970
    -1.5824  -1.2748

          k = 0.0000 0.2887 0.0000 ( 11777 PWs)   bands (ev):

   -75.2316 -48.4211 -48.4182 -48.4170 -48.4157 -48.4154 -39.3885 -39.2846
   -39.1832 -14.1753 -13.1721  -5.6843  -4.1602  -3.8852  -2.7588  -2.0501
    -1.8016  -1.1199

          k = 0.0000 0.3368 0.0000 ( 11757 PWs)   bands (ev):

   -75.2299 -48.4213 -48.4177 -48.4173 -48.4155 -48.4149 -39.3832 -39.3188
   -39.1916 -13.9237 -12.9788  -5.4429  -4.6025  -4.1663  -3.1008  -2.1309
    -2.0024  -1.0092

          k = 0.0000 0.3849 0.0000 ( 11771 PWs)   bands (ev):

   -75.2282 -48.4215 -48.4175 -48.4175 -48.4151 -48.4144 -39.3782 -39.3505
   -39.1994 -13.6676 -12.7823  -5.4795  -4.8975  -4.4190  -3.3043  -2.1827
    -2.1761  -0.9525

          k = 0.0000 0.4330 0.0000 ( 11761 PWs)   bands (ev):

   -75.2268 -48.4216 -48.4177 -48.4173 -48.4147 -48.4139 -39.3780 -39.3736
   -39.2061 -13.4269 -12.5975  -5.8460  -5.0478  -4.5150  -3.4116  -2.3166
    -2.1667  -0.9381

          k = 0.0000 0.4811 0.0000 ( 11733 PWs)   bands (ev):

   -75.2257 -48.4217 -48.4179 -48.4173 -48.4142 -48.4135 -39.3984 -39.3705
   -39.2112 -13.2259 -12.4426  -6.2095  -5.2661  -4.4774  -3.4672  -2.4196
    -2.0907  -0.9455

          k = 0.0000 0.5292 0.0000 ( 11700 PWs)   bands (ev):

   -75.2250 -48.4217 -48.4180 -48.4172 -48.4139 -48.4132 -39.4114 -39.3685
   -39.2144 -13.0910 -12.3378  -6.4561  -5.4328  -4.4426  -3.4943  -2.4825
    -2.0053  -0.9569

          k = 0.0000-0.5774 0.0000 ( 11704 PWs)   bands (ev):

   -75.2247 -48.4217 -48.4180 -48.4172 -48.4138 -48.4132 -39.4158 -39.3678
   -39.2155 -13.0432 -12.3005  -6.5431  -5.4928  -4.4317  -3.5024  -2.5037
    -1.9685  -0.9619

          k = 0.0417 0.0722 0.0000 ( 11799 PWs)   bands (ev):

   -75.2378 -48.4208 -48.4205 -48.4171 -48.4160 -48.4159 -39.4071 -39.1643
   -39.1540 -14.9190 -13.7459  -6.7406  -3.7368  -2.1532  -2.0795  -1.7673
    -0.9774  -0.9077

          k = 0.0417 0.1203 0.0000 ( 11788 PWs)   bands (ev):

   -75.2369 -48.4208 -48.4201 -48.4169 -48.4161 -48.4159 -39.4044 -39.1816
   -39.1584 -14.8217 -13.6707  -6.5898  -3.7608  -2.3707  -2.0956  -1.6640
    -1.2490  -1.0551

          k = 0.0417 0.1684 0.0000 ( 11804 PWs)   bands (ev):

   -75.2357 -48.4209 -48.4197 -48.4167 -48.4163 -48.4159 -39.4006 -39.2059
   -39.1646 -14.6792 -13.5606  -6.3731  -3.8010  -2.7634  -2.0388  -1.6413
    -1.5235  -1.2500

          k = 0.0417 0.2165 0.0000 ( 11805 PWs)   bands (ev):

   -75.2341 -48.4209 -48.4191 -48.4166 -48.4162 -48.4158 -39.3960 -39.2357
   -39.1722 -14.4960 -13.4191  -6.1044  -3.8679  -3.2296  -2.1291  -1.9899
    -1.4712  -1.3625

          k = 0.0417 0.2646 0.0000 ( 11791 PWs)   bands (ev):

   -75.2324 -48.4210 -48.4185 -48.4169 -48.4159 -48.4156 -39.3908 -39.2686
   -39.1807 -14.2785 -13.2515  -5.8062  -4.0068  -3.7095  -2.5987  -2.0257
    -1.6958  -1.2073

          k = 0.0417 0.3127 0.0000 ( 11777 PWs)   bands (ev):

   -75.2306 -48.4211 -48.4180 -48.4171 -48.4157 -48.4150 -39.3855 -39.3026
   -39.1894 -14.0361 -13.0650  -5.5217  -4.3763  -4.0344  -2.9999  -2.1078
    -1.9109  -1.0836

          k = 0.0417 0.3608 0.0000 ( 11759 PWs)   bands (ev):

   -75.2289 -48.4213 -48.4176 -48.4174 -48.4154 -48.4145 -39.3803 -39.3352
   -39.1978 -13.7813 -12.8693  -5.3765  -4.7884  -4.2954  -3.2607  -2.1964
    -2.1007  -1.0137

          k = 0.0417 0.4090 0.0000 ( 11762 PWs)   bands (ev):

   -75.2274 -48.4214 -48.4176 -48.4174 -48.4150 -48.4141 -39.3758 -39.3642
   -39.2054 -13.5314 -12.6775  -5.6280  -4.9449  -4.4906  -3.3956  -2.2967
    -2.1977  -0.9945

          k = 0.0417 0.4571 0.0000 ( 11728 PWs)   bands (ev):

   -75.2261 -48.4215 -48.4178 -48.4173 -48.4145 -48.4136 -39.3881 -39.3718
   -39.2115 -13.3086 -12.5060  -6.0179  -5.1406  -4.4902  -3.4601  -2.4226
    -2.1640  -1.0035

          k = 0.0417 0.5052 0.0000 ( 11716 PWs)   bands (ev):

   -75.2252 -48.4216 -48.4179 -48.4173 -48.4141 -48.4133 -39.4047 -39.3692
   -39.2159 -13.1386 -12.3744  -6.3284  -5.3452  -4.4437  -3.4894  -2.5147
    -2.0849  -1.0188

          k = 0.0417 0.5533 0.0000 ( 11680 PWs)   bands (ev):

   -75.2247 -48.4216 -48.4180 -48.4172 -48.4139 -48.4132 -39.4133 -39.3678
   -39.2181 -13.0460 -12.3021  -6.4974  -5.4621  -4.4200  -3.5005  -2.5626
    -2.0237  -1.0283

          k = 0.0833 0.1443 0.0000 ( 11799 PWs)   bands (ev):

   -75.2359 -48.4208 -48.4198 -48.4167 -48.4163 -48.4159 -39.4012 -39.2015
   -39.1641 -14.7026 -13.5786  -6.4077  -3.7912  -2.6951  -2.0442  -1.5974
    -1.5534  -1.2019

          k = 0.0833 0.1925 0.0000 ( 11799 PWs)   bands (ev):

   -75.2345 -48.4209 -48.4193 -48.4165 -48.4163 -48.4158 -39.3971 -39.2273
   -39.1717 -14.5409 -13.4537  -6.1660  -3.8372  -3.1049  -2.0512  -1.9933
    -1.4268  -1.3895

          k = 0.0833 0.2406 0.0000 ( 11778 PWs)   bands (ev):

   -75.2329 -48.4209 -48.4188 -48.4167 -48.4161 -48.4155 -39.3923 -39.2571
   -39.1805 -14.3419 -13.3002  -5.8812  -3.9164  -3.5630  -2.5220  -2.0174
    -1.6043  -1.2958

          k = 0.0833 0.2887 0.0000 ( 11766 PWs)   bands (ev):

   -75.2312 -48.4209 -48.4183 -48.4170 -48.4160 -48.4151 -39.3871 -39.2889
   -39.1901 -14.1136 -13.1243  -5.5817  -4.1659  -3.9265  -2.9677  -2.1022
    -1.8270  -1.1829

          k = 0.0833 0.3368 0.0000 ( 11775 PWs)   bands (ev):

   -75.2295 -48.4210 -48.4179 -48.4172 -48.4158 -48.4146 -39.3820 -39.3205
   -39.1996 -13.8666 -12.9342  -5.3340  -4.6146  -4.1523  -3.2885  -2.2247
    -2.0407  -1.1184

          k = 0.0833 0.3849 0.0000 ( 11771 PWs)   bands (ev):

   -75.2278 -48.4211 -48.4176 -48.4174 -48.4154 -48.4141 -39.3772 -39.3498
   -39.2085 -13.6157 -12.7414  -5.3914  -4.8563  -4.4034  -3.4473  -2.3458
    -2.2137  -1.1105

          k = 0.0833 0.4330 0.0000 ( 11746 PWs)   bands (ev):

   -75.2265 -48.4212 -48.4177 -48.4174 -48.4150 -48.4137 -39.3754 -39.3725
   -39.2161 -13.3804 -12.5603  -5.7703  -4.9809  -4.4869  -3.5036  -2.4850
    -2.2789  -1.1311

          k = 0.0833 0.4811 0.0000 ( 11722 PWs)   bands (ev):

   -75.2254 -48.4213 -48.4178 -48.4173 -48.4145 -48.4134 -39.3941 -39.3698
   -39.2219 -13.1845 -12.4089  -6.1256  -5.2045  -4.4308  -3.5134  -2.6206
    -2.2536  -1.1504

          k = 0.0833 0.5292 0.0000 ( 11686 PWs)   bands (ev):

   -75.2247 -48.4213 -48.4179 -48.4173 -48.4141 -48.4132 -39.4061 -39.3678
   -39.2256 -13.0534 -12.3066  -6.3643  -5.3722  -4.3891  -3.5062  -2.7152
    -2.2055  -1.1570

          k = 0.0833 0.5774 0.0000 ( 11664 PWs)   bands (ev):

   -75.2245 -48.4213 -48.4179 -48.4173 -48.4140 -48.4132 -39.4102 -39.3671
   -39.2268 -13.0070 -12.2703  -6.4482  -5.4321  -4.3765  -3.5012  -2.7493
    -2.1837  -1.1571

          k = 0.1250 0.2165 0.0000 ( 11775 PWs)   bands (ev):

   -75.2331 -48.4208 -48.4189 -48.4166 -48.4162 -48.4155 -39.3928 -39.2528
   -39.1809 -14.3633 -13.3166  -5.9065  -3.8857  -3.5060  -2.5019  -2.0156
    -1.5665  -1.3327

          k = 0.1250 0.2646 0.0000 ( 11787 PWs)   bands (ev):

   -75.2315 -48.4208 -48.4186 -48.4169 -48.4162 -48.4151 -39.3880 -39.2808
   -39.1915 -14.1531 -13.1544  -5.6132  -4.0248  -3.8739  -2.9727  -2.1034
    -1.7724  -1.2489

          k = 0.1250 0.3127 0.0000 ( 11788 PWs)   bands (ev):

   -75.2298 -48.4207 -48.4182 -48.4171 -48.4161 -48.4146 -39.3830 -39.3094
   -39.2026 -13.9193 -12.9743  -5.3225  -4.4477  -4.0244  -3.3697  -2.2555
    -1.9929  -1.2006

          k = 0.1250 0.3608 0.0000 ( 11776 PWs)   bands (ev):

   -75.2282 -48.4208 -48.4179 -48.4173 -48.4158 -48.4141 -39.3782 -39.3368
   -39.2134 -13.6746 -12.7859  -5.1809  -4.7935  -4.2573  -3.5801  -2.4251
    -2.2087  -1.2079

          k = 0.1250 0.4090 0.0000 ( 11749 PWs)   bands (ev):

   -75.2268 -48.4208 -48.4177 -48.4174 -48.4155 -48.4137 -39.3739 -39.3612
   -39.2232 -13.4358 -12.6018  -5.4937  -4.8192  -4.4645  -3.6291  -2.5837
    -2.3861  -1.2397

          k = 0.1250 0.4571 0.0000 ( 11712 PWs)   bands (ev):

   -75.2256 -48.4208 -48.4177 -48.4175 -48.4150 -48.4134 -39.3812 -39.3702
   -39.2311 -13.2241 -12.4379  -5.8695  -5.0207  -4.4202  -3.6083  -2.7446
    -2.4803  -1.2558

          k = 0.1250 0.5052 0.0000 ( 11701 PWs)   bands (ev):

   -75.2247 -48.4209 -48.4177 -48.4175 -48.4146 -48.4133 -39.3952 -39.3678
   -39.2368 -13.0634 -12.3127  -6.1575  -5.2301  -4.3512  -3.5587  -2.8963
    -2.5038  -1.2453

          k = 0.1250 0.5533 0.0000 ( 11683 PWs)   bands (ev):

   -75.2243 -48.4209 -48.4178 -48.4175 -48.4143 -48.4133 -39.4024 -39.3665
   -39.2397 -12.9762 -12.2441  -6.3131  -5.3461  -4.3207  -3.5131  -2.9957
    -2.5031  -1.2275

          k = 0.1667 0.2887 0.0000 ( 11767 PWs)   bands (ev):

   -75.2299 -48.4206 -48.4183 -48.4170 -48.4162 -48.4146 -39.3833 -39.3052
   -39.2041 -13.9371 -12.9878  -5.3206  -4.3767  -3.9657  -3.4210  -2.2703
    -1.9736  -1.2292

          k = 0.1667 0.3368 0.0000 ( 11759 PWs)   bands (ev):

   -75.2284 -48.4205 -48.4181 -48.4172 -48.4161 -48.4141 -39.3787 -39.3288
   -39.2173 -13.7049 -12.8086  -5.0563  -4.7552  -4.0907  -3.7506  -2.4874
    -2.1969  -1.2534

          k = 0.1667 0.3849 0.0000 ( 11741 PWs)   bands (ev):

   -75.2269 -48.4204 -48.4179 -48.4173 -48.4159 -48.4137 -39.3744 -39.3504
   -39.2300 -13.4708 -12.6277  -5.2375  -4.7396  -4.3775  -3.8196  -2.7072
    -2.4255  -1.2940

          k = 0.1667 0.4330 0.0000 ( 11722 PWs)   bands (ev):

   -75.2257 -48.4204 -48.4177 -48.4174 -48.4155 -48.4134 -39.3710 -39.3682
   -39.2412 -13.2530 -12.4588  -5.6010  -4.8137  -4.4332  -3.7829  -2.8976
    -2.6363  -1.3056

          k = 0.1667 0.4811 0.0000 ( 11711 PWs)   bands (ev):

   -75.2247 -48.4204 -48.4177 -48.4175 -48.4151 -48.4133 -39.3825 -39.3678
   -39.2499 -13.0734 -12.3186  -5.9053  -5.0524  -4.3267  -3.7044  -3.0610
    -2.7970  -1.2754

          k = 0.1667 0.5292 0.0000 ( 11688 PWs)   bands (ev):

   -75.2242 -48.4204 -48.4176 -48.4176 -48.4147 -48.4133 -39.3910 -39.3660
   -39.2554 -12.9540 -12.2246  -6.1072  -5.2159  -4.2695  -3.6019  -3.2137
    -2.8832  -1.2288

          k = 0.1667 0.5774 0.0000 ( 11682 PWs)   bands (ev):

   -75.2239 -48.4204 -48.4176 -48.4176 -48.4145 -48.4134 -39.3939 -39.3654
   -39.2573 -12.9121 -12.1913  -6.1780  -5.2728  -4.2540  -3.5320  -3.3021
    -2.9077  -1.2067

          k = 0.2083 0.3608 0.0000 ( 11741 PWs)   bands (ev):

   -75.2270 -48.4202 -48.4180 -48.4172 -48.4161 -48.4137 -39.3746 -39.3461
   -39.2329 -13.4827 -12.6365  -5.1118  -4.7499  -4.2770  -3.9517  -2.7646
    -2.4305  -1.3078

          k = 0.2083 0.4090 0.0000 ( 11709 PWs)   bands (ev):

   -75.2258 -48.4200 -48.4179 -48.4172 -48.4159 -48.4134 -39.3709 -39.3603
   -39.2481 -13.2683 -12.4698  -5.4046  -4.6349  -4.4743  -3.9554  -3.0368
    -2.6757  -1.3193

          k = 0.2083 0.4571 0.0000 ( 11719 PWs)   bands (ev):

   -75.2247 -48.4199 -48.4178 -48.4173 -48.4156 -48.4134 -39.3714 -39.3676
   -39.2613 -13.0807 -12.3229  -5.6673  -4.8795  -4.3317  -3.8995  -3.2574
    -2.9132  -1.2743

          k = 0.2083 0.5052 0.0000 ( 11700 PWs)   bands (ev):

   -75.2240 -48.4199 -48.4178 -48.4173 -48.4152 -48.4134 -39.3784 -39.3656
   -39.2711 -12.9400 -12.2118  -5.8670  -5.0718  -4.2433  -3.8068  -3.4038
    -3.1218  -1.1982

          k = 0.2083 0.5533 0.0000 ( 11681 PWs)   bands (ev):

   -75.2237 -48.4198 -48.4178 -48.4173 -48.4149 -48.4135 -39.3819 -39.3645
   -39.2763 -12.8643 -12.1516  -5.9756  -5.1725  -4.2141  -3.7047  -3.4889
    -3.2606  -1.1399

          k = 0.2500 0.4330 0.0000 ( 11731 PWs)   bands (ev):

   -75.2247 -48.4198 -48.4179 -48.4172 -48.4158 -48.4134 -39.3682 -39.3661
   -39.2661 -13.0833 -12.3244  -5.5589  -4.8002  -4.3411  -4.0018  -3.3515
    -2.9303  -1.2699

          k = 0.2500 0.4811 0.0000 ( 11707 PWs)   bands (ev):

   -75.2240 -48.4195 -48.4180 -48.4171 -48.4156 -48.4134 -39.3691 -39.3654
   -39.2821 -12.9334 -12.2055  -5.6773  -4.9779  -4.2305  -3.9982  -3.5792
    -3.1665  -1.1704

          k = 0.2500 0.5292 0.0000 ( 11689 PWs)   bands (ev):

   -75.2235 -48.4194 -48.4180 -48.4170 -48.4154 -48.4136 -39.3692 -39.3640
   -39.2935 -12.8351 -12.1270  -5.7519  -5.0968  -4.2220  -3.9385  -3.6809
    -3.3597  -1.0717

          k = 0.2500 0.5774 0.0000 ( 11670 PWs)   bands (ev):

   -75.2233 -48.4193 -48.4180 -48.4169 -48.4152 -48.4136 -39.3688 -39.3635
   -39.2978 -12.8008 -12.0994  -5.7776  -5.1381  -4.2405  -3.8936  -3.6972
    -3.4489  -1.0304

          k = 0.2917 0.5052 0.0000 ( 11704 PWs)   bands (ev):

   -75.2234 -48.4192 -48.4181 -48.4168 -48.4156 -48.4136 -39.3639 -39.3626
   -39.3015 -12.8253 -12.1187  -5.6337  -5.0868  -4.2224  -4.0568  -3.7629
    -3.3661  -1.0426

          k = 0.2917 0.5533 0.0000 ( 11682 PWs)   bands (ev):

   -75.2231 -48.4190 -48.4182 -48.4165 -48.4156 -48.4137 -39.3630 -39.3553
   -39.3157 -12.7679 -12.0723  -5.5702  -5.1779  -4.3235  -3.9949  -3.8461
    -3.4798  -0.9538

          k = 0.3333 0.5774 0.0000 ( 11694 PWs)   bands (ev):

   -75.2230 -48.4188 -48.4184 -48.4161 -48.4160 -48.4138 -39.3626 -39.3412
   -39.3326 -12.7448 -12.0534  -5.3723  -5.3367  -4.3859  -3.9887  -3.9147
    -3.5118  -0.9048

     highest occupied level (ev):    -0.7806

!    total energy              =   -1228.37928017 Ry
     total all-electron energy =    -37944.469711 Ry
     estimated scf accuracy    <          8.6E-09 Ry

     The total energy is the sum of the following terms:
     one-electron contribution =   -2749.50610573 Ry
     hartree contribution      =    1372.31432877 Ry
     xc contribution           =     -73.23288305 Ry
     ewald contribution        =    1014.62639045 Ry
     one-center paw contrib.   =    -792.58101060 Ry

     convergence has been achieved in  29 iterations

     Writing all to output data dir ./work/WSSe.save/

     init_run     :      1.68s CPU      1.82s WALL (       1 calls)
     electrons    :     71.70s CPU     76.60s WALL (       1 calls)

     Called by init_run:
     wfcinit      :      0.95s CPU      1.04s WALL (       1 calls)
     potinit      :      0.18s CPU      0.19s WALL (       1 calls)
     hinit0       :      0.46s CPU      0.46s WALL (       1 calls)

     Called by electrons:
     c_bands      :     57.92s CPU     62.06s WALL (      30 calls)
     sum_band     :      9.89s CPU     10.59s WALL (      30 calls)
     v_of_rho     :      0.18s CPU      0.18s WALL (      30 calls)
     newd         :      2.13s CPU      2.16s WALL (      30 calls)
     PAW_pot      :      1.54s CPU      1.61s WALL (      30 calls)
     mix_rho      :      0.10s CPU      0.10s WALL (      30 calls)

     Called by c_bands:
     init_us_2    :      1.06s CPU      1.12s WALL (    3721 calls)
     init_us_2:cp :      1.05s CPU      1.12s WALL (    3721 calls)
     cegterg      :     54.99s CPU     59.02s WALL (    1830 calls)

     Called by *egterg:
     cdiaghg      :      2.11s CPU      2.20s WALL (    8268 calls)
     h_psi        :     36.18s CPU     39.65s WALL (    8390 calls)
     s_psi        :      4.74s CPU      4.99s WALL (    8390 calls)
     g_psi        :      0.20s CPU      0.20s WALL (    6499 calls)

     Called by h_psi:
     h_psi:calbec :      4.80s CPU      5.37s WALL (    8390 calls)
     vloc_psi     :     26.63s CPU     29.14s WALL (    8390 calls)
     add_vuspsi   :      4.64s CPU      5.04s WALL (    8390 calls)

     General routines
     calbec       :      6.56s CPU      7.31s WALL (   10220 calls)
     fft          :      0.35s CPU      0.35s WALL (     331 calls)
     ffts         :      0.01s CPU      0.01s WALL (      30 calls)
     fftw         :     29.25s CPU     31.98s WALL (  206964 calls)

     Parallel routines

     PWSCF        :   1m13.72s CPU   1m18.89s WALL


   This run was terminated on:  10: 5:55  30Jan2023            

=------------------------------------------------------------------------------=
   JOB DONE.
=------------------------------------------------------------------------------=
