
     Program PWSCF v.7.1 starts on 30Jan2023 at 10: 5:56 

     This program is part of the open-source Quantum ESPRESSO suite
     for quantum simulation of materials; please cite
         "P. Giannozzi et al., J. Phys.:Condens. Matter 21 395502 (2009);
         "P. Giannozzi et al., J. Phys.:Condens. Matter 29 465901 (2017);
         "P. Giannozzi et al., J. Chem. Phys. 152 154105 (2020);
          URL http://www.quantum-espresso.org", 
     in publications or presentations arising from this work. More details at
     http://www.quantum-espresso.org/quote

     Parallel version (MPI), running on    12 processors

     MPI processes distributed on     1 nodes
     122543 MiB available memory on the printing compute node when the environment starts

     Waiting for input...
     Reading input from standard input

     Current dimensions of program PWSCF are:
     Max number of different atomic species (ntypx) = 10
     Max number of k-points (npk) =  40000
     Max angular momentum in pseudopotentials (lmaxx) =  4
     file W.pbe-spn-kjpaw_psl.1.0.0.UPF: wavefunction(s)  6S 5P 5D renormalized
     file S.pbe-n-kjpaw_psl.1.0.0.UPF: wavefunction(s)  3S 3P renormalized
     file Se.pbe-dn-kjpaw_psl.1.0.0.UPF: wavefunction(s)  4S 4P 3D renormalized
     Message from routine setup:
     using ibrav=0 with symmetry is DISCOURAGED, use correct ibrav instead

     R & G space division:  proc/nbgrp/npool/nimage =      12
     Subspace diagonalization in iterative solution of the eigenvalue problem:
     a serial algorithm will be used


     Parallelization info
     --------------------
     sticks:   dense  smooth     PW     G-vecs:    dense   smooth      PW
     Min          58      58     17                 9832     9832    1545
     Max          59      59     19                 9855     9855    1577
     Sum         703     703    211               118169   118169   18755

     Using Slab Decomposition



     bravais-lattice index     =            0
     lattice parameter (alat)  =       6.0471  a.u.
     unit-cell volume          =    1496.1226 (a.u.)^3
     number of atoms/cell      =            3
     number of atomic types    =            3
     number of electrons       =        36.00
     number of Kohn-Sham states=           18
     kinetic-energy cutoff     =      70.0000  Ry
     charge density cutoff     =     280.0000  Ry
     scf convergence threshold =      1.0E-08
     mixing beta               =       0.5000
     number of iterations used =            8  plain     mixing
     Exchange-correlation= SLA  PW   PBX  PBC
                           (   1   4   3   4   0   0   0)

     celldm(1)=   6.047124  celldm(2)=   0.000000  celldm(3)=   0.000000
     celldm(4)=   0.000000  celldm(5)=   0.000000  celldm(6)=   0.000000

     crystal axes: (cart. coord. in units of alat)
               a(1) = (   1.000000   0.000000   0.000000 )  
               a(2) = (  -0.500000   0.866025   0.000000 )  
               a(3) = (   0.000000   0.000000   7.812500 )  

     reciprocal axes: (cart. coord. in units 2 pi/alat)
               b(1) = (  1.000000  0.577350 -0.000000 )  
               b(2) = (  0.000000  1.154701  0.000000 )  
               b(3) = (  0.000000 -0.000000  0.128000 )  


     PseudoPot. # 1 for W  read from file:
     /home/mainadmin/research/danu/pseudo/W.pbe-spn-kjpaw_psl.1.0.0.UPF
     MD5 check sum: 03c3df5b60893f488392c7401945500a
     Pseudo is Projector augmented-wave + core cor, Zval = 14.0
     Generated using &quot;atomic&quot; code by A. Dal Corso  v.6.2.2
     Shape of augmentation charge: PSQ
     Using radial grid of 1273 points,  6 beta functions with: 
                l(1) =   0
                l(2) =   0
                l(3) =   1
                l(4) =   1
                l(5) =   2
                l(6) =   2
     Q(r) pseudized with 0 coefficients 


     PseudoPot. # 2 for S  read from file:
     /home/mainadmin/research/danu/pseudo/S.pbe-n-kjpaw_psl.1.0.0.UPF
     MD5 check sum: fb45dfebcf3e72a4e1bd4a866ec2e262
     Pseudo is Projector augmented-wave + core cor, Zval =  6.0
     Generated using &quot;atomic&quot; code by A. Dal Corso  v.6.3
     Shape of augmentation charge: PSQ
     Using radial grid of 1151 points,  6 beta functions with: 
                l(1) =   0
                l(2) =   0
                l(3) =   1
                l(4) =   1
                l(5) =   2
                l(6) =   2
     Q(r) pseudized with 0 coefficients 


     PseudoPot. # 3 for Se read from file:
     /home/mainadmin/research/danu/pseudo/Se.pbe-dn-kjpaw_psl.1.0.0.UPF
     MD5 check sum: ac240dd2bae32a30e0bf3a38df9c8785
     Pseudo is Projector augmented-wave + core cor, Zval = 16.0
     Generated using &quot;atomic&quot; code by A. Dal Corso  v.6.3
     Shape of augmentation charge: PSQ
     Using radial grid of 1211 points,  6 beta functions with: 
                l(1) =   0
                l(2) =   0
                l(3) =   1
                l(4) =   1
                l(5) =   2
                l(6) =   2
     Q(r) pseudized with 0 coefficients 


     atomic species   valence    mass     pseudopotential
        W             14.00   183.84000     W ( 1.00)
        S              6.00    32.06500     S ( 1.00)
        Se            16.00    78.96000     Se( 1.00)

      6 Sym. Ops. (no inversion) found



   Cartesian axes

     site n.     atom                  positions (alat units)
         1           Se  tau(   1) = (   0.5000000   0.2886751   4.5312500  )
         2           W   tau(   2) = (  -0.0000000   0.5773503   3.9062500  )
         3           S   tau(   3) = (   0.5000000   0.2886751  -4.5312500  )

     number of k points=    61
                       cart. coord. in units 2pi/alat
        k(    1) = (   0.0000000   0.0000000   0.0000000), wk =   0.0034722
        k(    2) = (   0.0000000   0.0481125   0.0000000), wk =   0.0208333
        k(    3) = (   0.0000000   0.0962250   0.0000000), wk =   0.0208333
        k(    4) = (   0.0000000   0.1443376   0.0000000), wk =   0.0208333
        k(    5) = (   0.0000000   0.1924501   0.0000000), wk =   0.0208333
        k(    6) = (   0.0000000   0.2405626   0.0000000), wk =   0.0208333
        k(    7) = (   0.0000000   0.2886751   0.0000000), wk =   0.0208333
        k(    8) = (   0.0000000   0.3367877   0.0000000), wk =   0.0208333
        k(    9) = (   0.0000000   0.3849002   0.0000000), wk =   0.0208333
        k(   10) = (   0.0000000   0.4330127   0.0000000), wk =   0.0208333
        k(   11) = (   0.0000000   0.4811252   0.0000000), wk =   0.0208333
        k(   12) = (   0.0000000   0.5292377   0.0000000), wk =   0.0208333
        k(   13) = (   0.0000000  -0.5773503   0.0000000), wk =   0.0104167
        k(   14) = (   0.0416667   0.0721688   0.0000000), wk =   0.0208333
        k(   15) = (   0.0416667   0.1202813   0.0000000), wk =   0.0416667
        k(   16) = (   0.0416667   0.1683938   0.0000000), wk =   0.0416667
        k(   17) = (   0.0416667   0.2165064   0.0000000), wk =   0.0416667
        k(   18) = (   0.0416667   0.2646189   0.0000000), wk =   0.0416667
        k(   19) = (   0.0416667   0.3127314   0.0000000), wk =   0.0416667
        k(   20) = (   0.0416667   0.3608439   0.0000000), wk =   0.0416667
        k(   21) = (   0.0416667   0.4089564   0.0000000), wk =   0.0416667
        k(   22) = (   0.0416667   0.4570690   0.0000000), wk =   0.0416667
        k(   23) = (   0.0416667   0.5051815   0.0000000), wk =   0.0416667
        k(   24) = (   0.0416667   0.5532940   0.0000000), wk =   0.0416667
        k(   25) = (   0.0833333   0.1443376   0.0000000), wk =   0.0208333
        k(   26) = (   0.0833333   0.1924501   0.0000000), wk =   0.0416667
        k(   27) = (   0.0833333   0.2405626   0.0000000), wk =   0.0416667
        k(   28) = (   0.0833333   0.2886751   0.0000000), wk =   0.0416667
        k(   29) = (   0.0833333   0.3367877   0.0000000), wk =   0.0416667
        k(   30) = (   0.0833333   0.3849002   0.0000000), wk =   0.0416667
        k(   31) = (   0.0833333   0.4330127   0.0000000), wk =   0.0416667
        k(   32) = (   0.0833333   0.4811252   0.0000000), wk =   0.0416667
        k(   33) = (   0.0833333   0.5292377   0.0000000), wk =   0.0416667
        k(   34) = (   0.0833333   0.5773503   0.0000000), wk =   0.0208333
        k(   35) = (   0.1250000   0.2165064   0.0000000), wk =   0.0208333
        k(   36) = (   0.1250000   0.2646189   0.0000000), wk =   0.0416667
        k(   37) = (   0.1250000   0.3127314   0.0000000), wk =   0.0416667
        k(   38) = (   0.1250000   0.3608439   0.0000000), wk =   0.0416667
        k(   39) = (   0.1250000   0.4089564   0.0000000), wk =   0.0416667
        k(   40) = (   0.1250000   0.4570690   0.0000000), wk =   0.0416667
        k(   41) = (   0.1250000   0.5051815   0.0000000), wk =   0.0416667
        k(   42) = (   0.1250000   0.5532940   0.0000000), wk =   0.0416667
        k(   43) = (   0.1666667   0.2886751   0.0000000), wk =   0.0208333
        k(   44) = (   0.1666667   0.3367877   0.0000000), wk =   0.0416667
        k(   45) = (   0.1666667   0.3849002   0.0000000), wk =   0.0416667
        k(   46) = (   0.1666667   0.4330127   0.0000000), wk =   0.0416667
        k(   47) = (   0.1666667   0.4811252   0.0000000), wk =   0.0416667
        k(   48) = (   0.1666667   0.5292377   0.0000000), wk =   0.0416667
        k(   49) = (   0.1666667   0.5773503   0.0000000), wk =   0.0208333
        k(   50) = (   0.2083333   0.3608439   0.0000000), wk =   0.0208333
        k(   51) = (   0.2083333   0.4089564   0.0000000), wk =   0.0416667
        k(   52) = (   0.2083333   0.4570690   0.0000000), wk =   0.0416667
        k(   53) = (   0.2083333   0.5051815   0.0000000), wk =   0.0416667
        k(   54) = (   0.2083333   0.5532940   0.0000000), wk =   0.0416667
        k(   55) = (   0.2500000   0.4330127   0.0000000), wk =   0.0208333
        k(   56) = (   0.2500000   0.4811252   0.0000000), wk =   0.0416667
        k(   57) = (   0.2500000   0.5292377   0.0000000), wk =   0.0416667
        k(   58) = (   0.2500000   0.5773503   0.0000000), wk =   0.0208333
        k(   59) = (   0.2916667   0.5051815   0.0000000), wk =   0.0208333
        k(   60) = (   0.2916667   0.5532940   0.0000000), wk =   0.0416667
        k(   61) = (   0.3333333   0.5773503   0.0000000), wk =   0.0069444

     Dense  grid:   118169 G-vectors     FFT dimensions: (  36,  36, 256)

     Estimated max dynamical RAM per process >      60.75 MB

     Estimated total dynamical RAM >     729.00 MB

     Initial potential from superposition of free atoms

     starting charge      35.9993, renormalised to      36.0000

     negative rho (up, down):  8.755E-04 0.000E+00
     Starting wfcs are   26 randomized atomic wfcs
     Checking if some PAW data can be deallocated... 

     total cpu time spent up to now is        2.4 secs

     Self-consistent Calculation

     iteration #  1     ecut=    70.00 Ry     beta= 0.50
     Davidson diagonalization with overlap
     ethr =  1.00E-02,  avg # of iterations =  2.0

     Threshold (ethr) on eigenvalues was too large:
     Diagonalizing with lowered threshold

     Davidson diagonalization with overlap
     ethr =  4.62E-04,  avg # of iterations =  2.1

     negative rho (up, down):  9.433E-04 0.000E+00

     total cpu time spent up to now is        8.3 secs

     total energy              =   -1228.30933652 Ry
     estimated scf accuracy    <       0.16865358 Ry

     iteration #  2     ecut=    70.00 Ry     beta= 0.50
     Davidson diagonalization with overlap
     ethr =  4.68E-04,  avg # of iterations =  8.4

     negative rho (up, down):  9.304E-04 0.000E+00

     total cpu time spent up to now is       12.9 secs

     total energy              =   -1228.08056503 Ry
     estimated scf accuracy    <       4.12561092 Ry

     iteration #  3     ecut=    70.00 Ry     beta= 0.50
     Davidson diagonalization with overlap
     ethr =  4.68E-04,  avg # of iterations =  7.7

     negative rho (up, down):  1.018E-03 0.000E+00

     total cpu time spent up to now is       17.4 secs

     total energy              =   -1228.37495241 Ry
     estimated scf accuracy    <       0.04897449 Ry

     iteration #  4     ecut=    70.00 Ry     beta= 0.50
     Davidson diagonalization with overlap
     ethr =  1.36E-04,  avg # of iterations =  4.6

     negative rho (up, down):  1.136E-03 0.000E+00

     total cpu time spent up to now is       21.0 secs

     total energy              =   -1228.37599793 Ry
     estimated scf accuracy    <       0.09882420 Ry

     iteration #  5     ecut=    70.00 Ry     beta= 0.50
     Davidson diagonalization with overlap
     ethr =  1.36E-04,  avg # of iterations =  3.5

     negative rho (up, down):  1.515E-03 0.000E+00

     total cpu time spent up to now is       24.4 secs

     total energy              =   -1228.37914906 Ry
     estimated scf accuracy    <       0.01375688 Ry

     iteration #  6     ecut=    70.00 Ry     beta= 0.50
     Davidson diagonalization with overlap
     ethr =  3.82E-05,  avg # of iterations =  5.2

     negative rho (up, down):  1.717E-03 0.000E+00

     total cpu time spent up to now is       28.2 secs

     total energy              =   -1228.38156751 Ry
     estimated scf accuracy    <       0.01444023 Ry

     iteration #  7     ecut=    70.00 Ry     beta= 0.50
     Davidson diagonalization with overlap
     ethr =  3.82E-05,  avg # of iterations =  2.5

     negative rho (up, down):  1.990E-03 0.000E+00

     total cpu time spent up to now is       31.2 secs

     total energy              =   -1228.38243517 Ry
     estimated scf accuracy    <       0.00148932 Ry

     iteration #  8     ecut=    70.00 Ry     beta= 0.50
     Davidson diagonalization with overlap
     ethr =  4.14E-06,  avg # of iterations =  5.5

     negative rho (up, down):  2.127E-03 0.000E+00

     total cpu time spent up to now is       35.3 secs

     total energy              =   -1228.38296489 Ry
     estimated scf accuracy    <       0.00228756 Ry

     iteration #  9     ecut=    70.00 Ry     beta= 0.50
     Davidson diagonalization with overlap
     ethr =  4.14E-06,  avg # of iterations =  1.5

     negative rho (up, down):  2.457E-03 0.000E+00

     total cpu time spent up to now is       38.0 secs

     total energy              =   -1228.38275171 Ry
     estimated scf accuracy    <       0.00123170 Ry

     iteration # 10     ecut=    70.00 Ry     beta= 0.50
     Davidson diagonalization with overlap
     ethr =  3.42E-06,  avg # of iterations =  3.8

     negative rho (up, down):  2.520E-03 0.000E+00

     total cpu time spent up to now is       41.2 secs

     total energy              =   -1228.38295402 Ry
     estimated scf accuracy    <       0.00006054 Ry

     iteration # 11     ecut=    70.00 Ry     beta= 0.50
     Davidson diagonalization with overlap
     ethr =  1.68E-07,  avg # of iterations =  4.8

     negative rho (up, down):  2.644E-03 0.000E+00

     total cpu time spent up to now is       44.7 secs

     total energy              =   -1228.38298844 Ry
     estimated scf accuracy    <       0.00018055 Ry

     iteration # 12     ecut=    70.00 Ry     beta= 0.50
     Davidson diagonalization with overlap
     ethr =  1.68E-07,  avg # of iterations =  2.6

     negative rho (up, down):  2.549E-03 0.000E+00

     total cpu time spent up to now is       47.8 secs

     total energy              =   -1228.38299177 Ry
     estimated scf accuracy    <       0.00035232 Ry

     iteration # 13     ecut=    70.00 Ry     beta= 0.50
     Davidson diagonalization with overlap
     ethr =  1.68E-07,  avg # of iterations =  1.0

     negative rho (up, down):  3.498E-03 0.000E+00

     total cpu time spent up to now is       50.3 secs

     total energy              =   -1228.38304609 Ry
     estimated scf accuracy    <       0.00036943 Ry

     iteration # 14     ecut=    70.00 Ry     beta= 0.50
     Davidson diagonalization with overlap
     ethr =  1.68E-07,  avg # of iterations =  5.5

     negative rho (up, down):  2.935E-03 0.000E+00

     total cpu time spent up to now is       54.2 secs

     total energy              =   -1228.38297362 Ry
     estimated scf accuracy    <       0.00116078 Ry

     iteration # 15     ecut=    70.00 Ry     beta= 0.50
     Davidson diagonalization with overlap
     ethr =  1.68E-07,  avg # of iterations =  4.7

     negative rho (up, down):  3.286E-03 0.000E+00

     total cpu time spent up to now is       57.7 secs

     total energy              =   -1228.38301724 Ry
     estimated scf accuracy    <       0.00046384 Ry

     iteration # 16     ecut=    70.00 Ry     beta= 0.50
     Davidson diagonalization with overlap
     ethr =  1.68E-07,  avg # of iterations =  2.0

     negative rho (up, down):  2.736E-03 0.000E+00

     total cpu time spent up to now is       60.6 secs

     total energy              =   -1228.38297323 Ry
     estimated scf accuracy    <       0.00055713 Ry

     iteration # 17     ecut=    70.00 Ry     beta= 0.50
     Davidson diagonalization with overlap
     ethr =  1.68E-07,  avg # of iterations =  2.3

     negative rho (up, down):  3.043E-03 0.000E+00

     total cpu time spent up to now is       63.8 secs

     total energy              =   -1228.38307552 Ry
     estimated scf accuracy    <       0.00045675 Ry

     iteration # 18     ecut=    70.00 Ry     beta= 0.50
     Davidson diagonalization with overlap
     ethr =  1.68E-07,  avg # of iterations =  8.1

     negative rho (up, down):  3.060E-03 0.000E+00

     total cpu time spent up to now is       68.6 secs

     total energy              =   -1228.38299387 Ry
     estimated scf accuracy    <       0.00341900 Ry

     iteration # 19     ecut=    70.00 Ry     beta= 0.50
     Davidson diagonalization with overlap
     ethr =  1.68E-07,  avg # of iterations =  6.1

     negative rho (up, down):  5.582E-03 0.000E+00

     total cpu time spent up to now is       72.8 secs

     total energy              =   -1228.38283975 Ry
     estimated scf accuracy    <       0.00154914 Ry

     iteration # 20     ecut=    70.00 Ry     beta= 0.50
     Davidson diagonalization with overlap
     ethr =  1.68E-07,  avg # of iterations =  7.8

     negative rho (up, down):  8.278E-03 0.000E+00

     total cpu time spent up to now is       77.5 secs

     total energy              =   -1228.38298666 Ry
     estimated scf accuracy    <       0.00013268 Ry

     iteration # 21     ecut=    70.00 Ry     beta= 0.50
     Davidson diagonalization with overlap
     ethr =  1.68E-07,  avg # of iterations =  6.0

     negative rho (up, down):  8.405E-03 0.000E+00

     total cpu time spent up to now is       81.7 secs

     total energy              =   -1228.38307551 Ry
     estimated scf accuracy    <       0.00007089 Ry

     iteration # 22     ecut=    70.00 Ry     beta= 0.50
     Davidson diagonalization with overlap
     ethr =  1.68E-07,  avg # of iterations =  2.1

     negative rho (up, down):  7.964E-03 0.000E+00

     total cpu time spent up to now is       84.8 secs

     total energy              =   -1228.38307044 Ry
     estimated scf accuracy    <       0.00010382 Ry

     iteration # 23     ecut=    70.00 Ry     beta= 0.50
     Davidson diagonalization with overlap
     ethr =  1.68E-07,  avg # of iterations =  4.3

     negative rho (up, down):  8.970E-03 0.000E+00

     total cpu time spent up to now is       88.2 secs

     total energy              =   -1228.38308044 Ry
     estimated scf accuracy    <       0.00026918 Ry

     iteration # 24     ecut=    70.00 Ry     beta= 0.50
     Davidson diagonalization with overlap
     ethr =  1.68E-07,  avg # of iterations =  2.0

     negative rho (up, down):  8.718E-03 0.000E+00

     total cpu time spent up to now is       91.2 secs

     total energy              =   -1228.38306252 Ry
     estimated scf accuracy    <       0.00023060 Ry

     iteration # 25     ecut=    70.00 Ry     beta= 0.50
     Davidson diagonalization with overlap
     ethr =  1.68E-07,  avg # of iterations =  3.0

     negative rho (up, down):  8.444E-03 0.000E+00

     total cpu time spent up to now is       94.2 secs

     total energy              =   -1228.38304856 Ry
     estimated scf accuracy    <       0.00011093 Ry

     iteration # 26     ecut=    70.00 Ry     beta= 0.50
     Davidson diagonalization with overlap
     ethr =  1.68E-07,  avg # of iterations =  2.7

     negative rho (up, down):  7.499E-03 0.000E+00

     total cpu time spent up to now is       97.2 secs

     total energy              =   -1228.38301108 Ry
     estimated scf accuracy    <       0.00004991 Ry

     iteration # 27     ecut=    70.00 Ry     beta= 0.50
     Davidson diagonalization with overlap
     ethr =  1.39E-07,  avg # of iterations =  2.6

     negative rho (up, down):  6.256E-03 0.000E+00

     total cpu time spent up to now is      100.4 secs

     total energy              =   -1228.38254511 Ry
     estimated scf accuracy    <       0.00002604 Ry

     iteration # 28     ecut=    70.00 Ry     beta= 0.50
     Davidson diagonalization with overlap
     ethr =  7.23E-08,  avg # of iterations =  7.4

     negative rho (up, down):  6.145E-03 0.000E+00

     total cpu time spent up to now is      105.5 secs

     total energy              =   -1228.38295586 Ry
     estimated scf accuracy    <       0.00013464 Ry

     iteration # 29     ecut=    70.00 Ry     beta= 0.50
     Davidson diagonalization with overlap
     ethr =  7.23E-08,  avg # of iterations =  1.3

     negative rho (up, down):  7.293E-03 0.000E+00

     total cpu time spent up to now is      108.2 secs

     total energy              =   -1228.38288375 Ry
     estimated scf accuracy    <       0.00011257 Ry

     iteration # 30     ecut=    70.00 Ry     beta= 0.50
     Davidson diagonalization with overlap
     ethr =  7.23E-08,  avg # of iterations =  5.2

     negative rho (up, down):  6.842E-03 0.000E+00

     total cpu time spent up to now is      112.3 secs

     total energy              =   -1228.38295450 Ry
     estimated scf accuracy    <       0.00002145 Ry

     iteration # 31     ecut=    70.00 Ry     beta= 0.50
     Davidson diagonalization with overlap
     ethr =  5.96E-08,  avg # of iterations =  3.8

     negative rho (up, down):  6.610E-03 0.000E+00

     total cpu time spent up to now is      115.6 secs

     total energy              =   -1228.38284343 Ry
     estimated scf accuracy    <       0.00000759 Ry

     iteration # 32     ecut=    70.00 Ry     beta= 0.50
     Davidson diagonalization with overlap
     ethr =  2.11E-08,  avg # of iterations =  5.7

     negative rho (up, down):  7.283E-03 0.000E+00

     total cpu time spent up to now is      120.2 secs

     total energy              =   -1228.38285206 Ry
     estimated scf accuracy    <       0.00000522 Ry

     iteration # 33     ecut=    70.00 Ry     beta= 0.50
     Davidson diagonalization with overlap
     ethr =  1.45E-08,  avg # of iterations =  6.0

     negative rho (up, down):  5.764E-03 0.000E+00

     total cpu time spent up to now is      125.0 secs

     total energy              =   -1228.38291177 Ry
     estimated scf accuracy    <       0.00000355 Ry

     iteration # 34     ecut=    70.00 Ry     beta= 0.50
     Davidson diagonalization with overlap
     ethr =  9.85E-09,  avg # of iterations =  5.7

     negative rho (up, down):  5.843E-03 0.000E+00

     total cpu time spent up to now is      129.5 secs

     total energy              =   -1228.38294174 Ry
     estimated scf accuracy    <       0.00000108 Ry

     iteration # 35     ecut=    70.00 Ry     beta= 0.50
     Davidson diagonalization with overlap
     ethr =  3.00E-09,  avg # of iterations =  3.5

     negative rho (up, down):  6.927E-03 0.000E+00

     total cpu time spent up to now is      133.0 secs

     total energy              =   -1228.38292214 Ry
     estimated scf accuracy    <       0.00000026 Ry

     iteration # 36     ecut=    70.00 Ry     beta= 0.50
     Davidson diagonalization with overlap
     ethr =  7.08E-10,  avg # of iterations =  9.7

     negative rho (up, down):  6.643E-03 0.000E+00

     total cpu time spent up to now is      138.9 secs

     total energy              =   -1228.38294181 Ry
     estimated scf accuracy    <       0.00000706 Ry

     iteration # 37     ecut=    70.00 Ry     beta= 0.50
     Davidson diagonalization with overlap
     ethr =  7.08E-10,  avg # of iterations =  6.2

     negative rho (up, down):  5.793E-03 0.000E+00

     total cpu time spent up to now is      143.3 secs

     total energy              =   -1228.38293130 Ry
     estimated scf accuracy    <       0.00000202 Ry

     iteration # 38     ecut=    70.00 Ry     beta= 0.50
     Davidson diagonalization with overlap
     ethr =  7.08E-10,  avg # of iterations =  8.5

     negative rho (up, down):  6.099E-03 0.000E+00

     total cpu time spent up to now is      149.1 secs

     total energy              =   -1228.38294063 Ry
     estimated scf accuracy    <       0.00000034 Ry

     iteration # 39     ecut=    70.00 Ry     beta= 0.50
     Davidson diagonalization with overlap
     ethr =  7.08E-10,  avg # of iterations =  4.1

     negative rho (up, down):  6.138E-03 0.000E+00

     total cpu time spent up to now is      153.0 secs

     total energy              =   -1228.38294217 Ry
     estimated scf accuracy    <       0.00000014 Ry

     iteration # 40     ecut=    70.00 Ry     beta= 0.50
     Davidson diagonalization with overlap
     ethr =  3.79E-10,  avg # of iterations =  2.7

     negative rho (up, down):  6.268E-03 0.000E+00

     total cpu time spent up to now is      156.2 secs

     total energy              =   -1228.38294193 Ry
     estimated scf accuracy    <       0.00000005 Ry

     iteration # 41     ecut=    70.00 Ry     beta= 0.50
     Davidson diagonalization with overlap
     ethr =  1.29E-10,  avg # of iterations =  6.3

     negative rho (up, down):  6.252E-03 0.000E+00

     total cpu time spent up to now is      160.6 secs

     total energy              =   -1228.38294213 Ry
     estimated scf accuracy    <       0.00000001 Ry

     iteration # 42     ecut=    70.00 Ry     beta= 0.50
     Davidson diagonalization with overlap
     ethr =  3.44E-11,  avg # of iterations =  3.2

     negative rho (up, down):  6.256E-03 0.000E+00

     total cpu time spent up to now is      163.9 secs

     End of self-consistent calculation

          k = 0.0000 0.0000 0.0000 ( 14573 PWs)   bands (ev):

   -75.2497 -48.4412 -48.4412 -48.4373 -48.4364 -48.4364 -39.4199 -39.1609
   -39.1609 -14.9994 -13.8094  -6.8629  -3.7282  -2.2056  -1.8563  -1.8563
    -0.7890  -0.7890

          k = 0.0000 0.0481 0.0000 ( 14650 PWs)   bands (ev):

   -75.2494 -48.4413 -48.4412 -48.4373 -48.4366 -48.4365 -39.4192 -39.1655
   -39.1620 -14.9745 -13.7902  -6.8238  -3.7338  -2.1898  -1.9352  -1.8279
    -0.8515  -0.8348

          k = 0.0000 0.0962 0.0000 ( 14680 PWs)   bands (ev):

   -75.2488 -48.4414 -48.4411 -48.4372 -48.4366 -48.4365 -39.4172 -39.1791
   -39.1653 -14.9006 -13.7331  -6.7082  -3.7512  -2.1709  -2.1374  -1.7452
    -1.0455  -0.9621

          k = 0.0000 0.1443 0.0000 ( 14728 PWs)   bands (ev):

   -75.2477 -48.4415 -48.4408 -48.4371 -48.4368 -48.4366 -39.4139 -39.2005
   -39.1705 -14.7797 -13.6397  -6.5220  -3.7830  -2.5150  -2.0848  -1.6157
    -1.3744  -1.1470

          k = 0.0000 0.1925 0.0000 ( 14730 PWs)   bands (ev):

   -75.2462 -48.4415 -48.4403 -48.4371 -48.4367 -48.4366 -39.4096 -39.2283
   -39.1772 -14.6154 -13.5130  -6.2756  -3.8362  -2.9580  -2.0403  -1.8063
    -1.4545  -1.3621

          k = 0.0000 0.2406 0.0000 ( 14738 PWs)   bands (ev):

   -75.2446 -48.4416 -48.4398 -48.4373 -48.4365 -48.4363 -39.4046 -39.2605
   -39.1851 -14.4132 -13.3571  -5.9871  -3.9318  -3.4533  -2.3157  -2.0089
    -1.5903  -1.2790

          k = 0.0000 0.2887 0.0000 ( 14770 PWs)   bands (ev):

   -75.2428 -48.4418 -48.4392 -48.4376 -48.4365 -48.4359 -39.3993 -39.2949
   -39.1935 -14.1807 -13.1784  -5.6876  -4.1657  -3.8931  -2.7658  -2.0655
    -1.8094  -1.1236

          k = 0.0000 0.3368 0.0000 ( 14818 PWs)   bands (ev):

   -75.2410 -48.4421 -48.4388 -48.4379 -48.4364 -48.4355 -39.3940 -39.3291
   -39.2019 -13.9289 -12.9851  -5.4464  -4.6067  -4.1737  -3.1075  -2.1491
    -2.0101  -1.0125

          k = 0.0000 0.3849 0.0000 ( 14830 PWs)   bands (ev):

   -75.2394 -48.4422 -48.4384 -48.4381 -48.4362 -48.4351 -39.3890 -39.3608
   -39.2097 -13.6725 -12.7886  -5.4871  -4.8986  -4.4234  -3.3112  -2.2036
    -2.1837  -0.9557

          k = 0.0000 0.4330 0.0000 ( 14850 PWs)   bands (ev):

   -75.2379 -48.4423 -48.4383 -48.4382 -48.4360 -48.4347 -39.3882 -39.3843
   -39.2164 -13.4315 -12.6038  -5.8553  -5.0520  -4.5128  -3.4185  -2.3241
    -2.1897  -0.9415

          k = 0.0000 0.4811 0.0000 ( 14814 PWs)   bands (ev):

   -75.2368 -48.4423 -48.4385 -48.4381 -48.4357 -48.4343 -39.4086 -39.3813
   -39.2215 -13.2303 -12.4488  -6.2193  -5.2720  -4.4721  -3.4742  -2.4272
    -2.1151  -0.9490

          k = 0.0000 0.5292 0.0000 ( 14810 PWs)   bands (ev):

   -75.2361 -48.4424 -48.4386 -48.4380 -48.4355 -48.4341 -39.4216 -39.3793
   -39.2247 -13.0952 -12.3440  -6.4662  -5.4389  -4.4363  -3.5012  -2.4900
    -2.0303  -0.9606

          k = 0.0000-0.5774 0.0000 ( 14814 PWs)   bands (ev):

   -75.2359 -48.4424 -48.4387 -48.4380 -48.4354 -48.4340 -39.4260 -39.3786
   -39.2258 -13.0474 -12.3066  -6.5533  -5.4990  -4.4252  -3.5093  -2.5111
    -1.9936  -0.9656

          k = 0.0417 0.0722 0.0000 ( 14668 PWs)   bands (ev):

   -75.2490 -48.4414 -48.4411 -48.4373 -48.4366 -48.4365 -39.4178 -39.1745
   -39.1643 -14.9251 -13.7520  -6.7464  -3.7452  -2.1615  -2.0859  -1.7730
    -0.9853  -0.9159

          k = 0.0417 0.1203 0.0000 ( 14698 PWs)   bands (ev):

   -75.2481 -48.4415 -48.4408 -48.4371 -48.4367 -48.4365 -39.4152 -39.1918
   -39.1687 -14.8277 -13.6768  -6.5953  -3.7691  -2.3761  -2.1056  -1.6694
    -1.2566  -1.0631

          k = 0.0417 0.1684 0.0000 ( 14739 PWs)   bands (ev):

   -75.2468 -48.4415 -48.4405 -48.4370 -48.4369 -48.4365 -39.4114 -39.2162
   -39.1749 -14.6851 -13.5667  -6.3782  -3.8090  -2.7690  -2.0504  -1.6480
    -1.5286  -1.2578

          k = 0.0417 0.2165 0.0000 ( 14739 PWs)   bands (ev):

   -75.2453 -48.4416 -48.4400 -48.4372 -48.4366 -48.4364 -39.4068 -39.2459
   -39.1825 -14.5017 -13.4253  -6.1088  -3.8756  -3.2355  -2.1389  -1.9997
    -1.4789  -1.3671

          k = 0.0417 0.2646 0.0000 ( 14767 PWs)   bands (ev):

   -75.2436 -48.4417 -48.4395 -48.4375 -48.4366 -48.4361 -39.4016 -39.2789
   -39.1909 -14.2841 -13.2577  -5.8098  -4.0134  -3.7166  -2.6058  -2.0402
    -1.7034  -1.2112

          k = 0.0417 0.3127 0.0000 ( 14797 PWs)   bands (ev):

   -75.2418 -48.4419 -48.4390 -48.4377 -48.4365 -48.4357 -39.3963 -39.3128
   -39.1997 -14.0414 -13.0712  -5.5247  -4.3813  -4.0423  -3.0067  -2.1251
    -1.9185  -1.0870

          k = 0.0417 0.3608 0.0000 ( 14796 PWs)   bands (ev):

   -75.2401 -48.4420 -48.4386 -48.4380 -48.4363 -48.4353 -39.3911 -39.3454
   -39.2081 -13.7863 -12.8756  -5.3817  -4.7907  -4.3018  -3.2674  -2.2151
    -2.1094  -1.0171

          k = 0.0417 0.4090 0.0000 ( 14814 PWs)   bands (ev):

   -75.2385 -48.4421 -48.4383 -48.4382 -48.4361 -48.4348 -39.3866 -39.3745
   -39.2156 -13.5361 -12.6838  -5.6368  -4.9470  -4.4916  -3.4025  -2.3066
    -2.2173  -0.9981

          k = 0.0417 0.4571 0.0000 ( 14816 PWs)   bands (ev):

   -75.2373 -48.4422 -48.4384 -48.4381 -48.4359 -48.4345 -39.3983 -39.3826
   -39.2218 -13.3131 -12.5123  -6.0274  -5.1459  -4.4858  -3.4670  -2.4304
    -2.1873  -1.0075

          k = 0.0417 0.5052 0.0000 ( 14808 PWs)   bands (ev):

   -75.2364 -48.4422 -48.4385 -48.4381 -48.4356 -48.4342 -39.4149 -39.3799
   -39.2261 -13.1429 -12.3806  -6.3383  -5.3513  -4.4376  -3.4964  -2.5222
    -2.1091  -1.0233

          k = 0.0417 0.5533 0.0000 ( 14816 PWs)   bands (ev):

   -75.2359 -48.4423 -48.4386 -48.4381 -48.4355 -48.4341 -39.4235 -39.3786
   -39.2284 -13.0501 -12.3083  -6.5075  -5.4683  -4.4134  -3.5075  -2.5701
    -2.0480  -1.0332

          k = 0.0833 0.1443 0.0000 ( 14734 PWs)   bands (ev):

   -75.2470 -48.4415 -48.4406 -48.4370 -48.4369 -48.4365 -39.4120 -39.2118
   -39.1744 -14.7085 -13.5848  -6.4129  -3.7993  -2.7007  -2.0554  -1.6044
    -1.5587  -1.2097

          k = 0.0833 0.1925 0.0000 ( 14738 PWs)   bands (ev):

   -75.2457 -48.4416 -48.4402 -48.4371 -48.4367 -48.4364 -39.4079 -39.2376
   -39.1819 -14.5466 -13.4599  -6.1706  -3.8450  -3.1106  -2.0625  -2.0017
    -1.4318  -1.3967

          k = 0.0833 0.2406 0.0000 ( 14763 PWs)   bands (ev):

   -75.2441 -48.4416 -48.4397 -48.4374 -48.4367 -48.4361 -39.4031 -39.2674
   -39.1908 -14.3475 -13.3064  -5.8850  -3.9238  -3.5692  -2.5291  -2.0320
    -1.6114  -1.2999

          k = 0.0833 0.2887 0.0000 ( 14794 PWs)   bands (ev):

   -75.2423 -48.4417 -48.4393 -48.4376 -48.4367 -48.4357 -39.3979 -39.2991
   -39.2003 -14.1189 -13.1305  -5.5846  -4.1714  -3.9344  -2.9744  -2.1194
    -1.8341  -1.1865

          k = 0.0833 0.3368 0.0000 ( 14809 PWs)   bands (ev):

   -75.2406 -48.4418 -48.4389 -48.4378 -48.4366 -48.4354 -39.3928 -39.3307
   -39.2099 -13.8717 -12.9405  -5.3372  -4.6188  -4.1597  -3.2951  -2.2433
    -2.0485  -1.1219

          k = 0.0833 0.3849 0.0000 ( 14811 PWs)   bands (ev):

   -75.2390 -48.4419 -48.4385 -48.4381 -48.4364 -48.4350 -39.3880 -39.3600
   -39.2187 -13.6205 -12.7477  -5.3993  -4.8565  -4.4078  -3.4541  -2.3620
    -2.2259  -1.1147

          k = 0.0833 0.4330 0.0000 ( 14819 PWs)   bands (ev):

   -75.2376 -48.4420 -48.4383 -48.4382 -48.4361 -48.4346 -39.3857 -39.3832
   -39.2263 -13.3849 -12.5666  -5.7795  -4.9852  -4.4840  -3.5106  -2.4946
    -2.2989  -1.1366

          k = 0.0833 0.4811 0.0000 ( 14806 PWs)   bands (ev):

   -75.2366 -48.4420 -48.4384 -48.4382 -48.4358 -48.4343 -39.4043 -39.3805
   -39.2322 -13.1889 -12.4151  -6.1353  -5.2104  -4.4248  -3.5205  -2.6284
    -2.2755  -1.1574

          k = 0.0833 0.5292 0.0000 ( 14808 PWs)   bands (ev):

   -75.2359 -48.4420 -48.4385 -48.4381 -48.4357 -48.4341 -39.4163 -39.3786
   -39.2358 -13.0575 -12.3128  -6.3743  -5.3784  -4.3822  -3.5133  -2.7225
    -2.2271  -1.1655

          k = 0.0833 0.5774 0.0000 ( 14812 PWs)   bands (ev):

   -75.2357 -48.4420 -48.4386 -48.4381 -48.4356 -48.4341 -39.4204 -39.3779
   -39.2371 -13.0112 -12.2764  -6.4584  -5.4383  -4.3694  -3.5082  -2.7566
    -2.2050  -1.1661

          k = 0.1250 0.2165 0.0000 ( 14744 PWs)   bands (ev):

   -75.2442 -48.4416 -48.4398 -48.4373 -48.4367 -48.4361 -39.4036 -39.2630
   -39.1911 -14.3689 -13.3228  -5.9103  -3.8933  -3.5119  -2.5089  -2.0304
    -1.5735  -1.3369

          k = 0.1250 0.2646 0.0000 ( 14765 PWs)   bands (ev):

   -75.2426 -48.4416 -48.4394 -48.4375 -48.4367 -48.4357 -39.3988 -39.2910
   -39.2017 -14.1585 -13.1607  -5.6161  -4.0309  -3.8814  -2.9793  -2.1208
    -1.7791  -1.2526

          k = 0.1250 0.3127 0.0000 ( 14803 PWs)   bands (ev):

   -75.2410 -48.4416 -48.4391 -48.4377 -48.4367 -48.4354 -39.3938 -39.3196
   -39.2128 -13.9245 -12.9806  -5.3246  -4.4530  -4.0320  -3.3761  -2.2744
    -1.9999  -1.2044

          k = 0.1250 0.3608 0.0000 ( 14826 PWs)   bands (ev):

   -75.2394 -48.4416 -48.4388 -48.4380 -48.4366 -48.4350 -39.3890 -39.3471
   -39.2237 -13.6795 -12.7922  -5.1869  -4.7941  -4.2638  -3.5867  -2.4439
    -2.2171  -1.2129

          k = 0.1250 0.4090 0.0000 ( 14828 PWs)   bands (ev):

   -75.2379 -48.4417 -48.4385 -48.4381 -48.4364 -48.4347 -39.3847 -39.3715
   -39.2334 -13.4404 -12.6080  -5.5027  -4.8208  -4.4647  -3.6360  -2.5990
    -2.3986  -1.2470

          k = 0.1250 0.4571 0.0000 ( 14822 PWs)   bands (ev):

   -75.2367 -48.4417 -48.4384 -48.4383 -48.4362 -48.4344 -39.3915 -39.3810
   -39.2414 -13.2285 -12.4441  -5.8788  -5.0264  -4.4143  -3.6154  -2.7547
    -2.4974  -1.2659

          k = 0.1250 0.5052 0.0000 ( 14806 PWs)   bands (ev):

   -75.2359 -48.4417 -48.4384 -48.4383 -48.4359 -48.4342 -39.4054 -39.3786
   -39.2471 -13.0676 -12.3188  -6.1673  -5.2363  -4.3439  -3.5659  -2.9042
    -2.5217  -1.2581

          k = 0.1250 0.5533 0.0000 ( 14810 PWs)   bands (ev):

   -75.2355 -48.4417 -48.4385 -48.4382 -48.4358 -48.4341 -39.4126 -39.3773
   -39.2500 -12.9803 -12.2503  -6.3230  -5.3524  -4.3132  -3.5203  -3.0029
    -2.5203  -1.2420

          k = 0.1667 0.2887 0.0000 ( 14786 PWs)   bands (ev):

   -75.2411 -48.4415 -48.4392 -48.4377 -48.4367 -48.4354 -39.3941 -39.3154
   -39.2143 -13.9423 -12.9941  -5.3224  -4.3825  -3.9733  -3.4273  -2.2893
    -1.9803  -1.2331

          k = 0.1667 0.3368 0.0000 ( 14813 PWs)   bands (ev):

   -75.2395 -48.4414 -48.4390 -48.4379 -48.4367 -48.4350 -39.3895 -39.3391
   -39.2275 -13.7099 -12.8149  -5.0595  -4.7583  -4.0977  -3.7570  -2.5067
    -2.2041  -1.2590

          k = 0.1667 0.3849 0.0000 ( 14838 PWs)   bands (ev):

   -75.2381 -48.4414 -48.4388 -48.4380 -48.4367 -48.4347 -39.3852 -39.3606
   -39.2403 -13.4754 -12.6340  -5.2465  -4.7368  -4.3822  -3.8265  -2.7256
    -2.4335  -1.3029

          k = 0.1667 0.4330 0.0000 ( 14836 PWs)   bands (ev):

   -75.2369 -48.4413 -48.4386 -48.4381 -48.4365 -48.4345 -39.3818 -39.3785
   -39.2514 -13.2575 -12.4651  -5.6101  -4.8190  -4.4277  -3.7899  -2.9136
    -2.6459  -1.3183

          k = 0.1667 0.4811 0.0000 ( 14828 PWs)   bands (ev):

   -75.2359 -48.4413 -48.4385 -48.4382 -48.4363 -48.4343 -39.3927 -39.3785
   -39.2601 -13.0776 -12.3248  -5.9147  -5.0586  -4.3191  -3.7114  -3.0728
    -2.8089  -1.2915

          k = 0.1667 0.5292 0.0000 ( 14831 PWs)   bands (ev):

   -75.2353 -48.4413 -48.4385 -48.4383 -48.4361 -48.4342 -39.4013 -39.3768
   -39.2656 -12.9581 -12.2307  -6.1169  -5.2222  -4.2616  -3.6091  -3.2222
    -2.8964  -1.2473

          k = 0.1667 0.5774 0.0000 ( 14828 PWs)   bands (ev):

   -75.2351 -48.4413 -48.4385 -48.4383 -48.4360 -48.4342 -39.4042 -39.3762
   -39.2675 -12.9161 -12.1974  -6.1878  -5.2791  -4.2461  -3.5395  -3.3095
    -2.9210  -1.2260

          k = 0.2083 0.3608 0.0000 ( 14832 PWs)   bands (ev):

   -75.2382 -48.4412 -48.4389 -48.4379 -48.4368 -48.4348 -39.3854 -39.3563
   -39.2432 -13.4874 -12.6428  -5.1215  -4.7452  -4.2828  -3.9587  -2.7834
    -2.4375  -1.3172

          k = 0.2083 0.4090 0.0000 ( 14850 PWs)   bands (ev):

   -75.2369 -48.4411 -48.4388 -48.4380 -48.4367 -48.4345 -39.3817 -39.3705
   -39.2584 -13.2728 -12.4760  -5.4136  -4.6396  -4.4694  -3.9624  -3.0543
    -2.6827  -1.3333

          k = 0.2083 0.4571 0.0000 ( 14828 PWs)   bands (ev):

   -75.2359 -48.4409 -48.4387 -48.4380 -48.4366 -48.4344 -39.3816 -39.3784
   -39.2716 -13.0849 -12.3291  -5.6764  -4.8859  -4.3239  -3.9063  -3.2731
    -2.9203  -1.2924

          k = 0.2083 0.5052 0.0000 ( 14816 PWs)   bands (ev):

   -75.2352 -48.4409 -48.4386 -48.4381 -48.4364 -48.4343 -39.3886 -39.3764
   -39.2813 -12.9441 -12.2179  -5.8763  -5.0781  -4.2357  -3.8134  -3.4166
    -3.1295  -1.2192

          k = 0.2083 0.5533 0.0000 ( 14818 PWs)   bands (ev):

   -75.2348 -48.4408 -48.4386 -48.4381 -48.4362 -48.4343 -39.3922 -39.3753
   -39.2866 -12.8684 -12.1577  -5.9851  -5.1789  -4.2076  -3.7108  -3.4987
    -3.2696  -1.1625

          k = 0.2500 0.4330 0.0000 ( 14842 PWs)   bands (ev):

   -75.2359 -48.4408 -48.4388 -48.4380 -48.4367 -48.4344 -39.3789 -39.3764
   -39.2764 -13.0876 -12.3306  -5.5678  -4.8067  -4.3330  -4.0090  -3.3673
    -2.9368  -1.2887

          k = 0.2500 0.4811 0.0000 ( 14830 PWs)   bands (ev):

   -75.2351 -48.4406 -48.4388 -48.4379 -48.4367 -48.4343 -39.3793 -39.3761
   -39.2923 -12.9375 -12.2117  -5.6862  -4.9842  -4.2235  -4.0056  -3.5915
    -3.1729  -1.1928

          k = 0.2500 0.5292 0.0000 ( 14807 PWs)   bands (ev):

   -75.2346 -48.4404 -48.4389 -48.4378 -48.4366 -48.4343 -39.3794 -39.3748
   -39.3038 -12.8391 -12.1331  -5.7609  -5.1031  -4.2220  -3.9407  -3.6895
    -3.3665  -1.0965

          k = 0.2500 0.5774 0.0000 ( 14820 PWs)   bands (ev):

   -75.2345 -48.4403 -48.4389 -48.4378 -48.4366 -48.4343 -39.3791 -39.3743
   -39.3080 -12.8048 -12.1055  -5.7866  -5.1443  -4.2435  -3.8923  -3.7057
    -3.4560  -1.0560

          k = 0.2917 0.5052 0.0000 ( 14830 PWs)   bands (ev):

   -75.2346 -48.4402 -48.4390 -48.4377 -48.4368 -48.4344 -39.3747 -39.3728
   -39.3118 -12.8292 -12.1247  -5.6423  -5.0930  -4.2292  -4.0552  -3.7688
    -3.3729  -1.0682

          k = 0.2917 0.5533 0.0000 ( 14818 PWs)   bands (ev):

   -75.2343 -48.4400 -48.4391 -48.4375 -48.4369 -48.4344 -39.3738 -39.3656
   -39.3259 -12.7719 -12.0783  -5.5786  -5.1842  -4.3368  -3.9871  -3.8505
    -3.4871  -0.9811

          k = 0.3333 0.5774 0.0000 ( 14814 PWs)   bands (ev):

   -75.2342 -48.4397 -48.4393 -48.4373 -48.4371 -48.4344 -39.3734 -39.3516
   -39.3428 -12.7487 -12.0594  -5.3810  -5.3425  -4.4024  -3.9767  -3.9197
    -3.5193  -0.9331

     highest occupied level (ev):    -0.7890

!    total energy              =   -1228.38294213 Ry
     total all-electron energy =    -37944.473373 Ry
     estimated scf accuracy    <          6.2E-09 Ry

     The total energy is the sum of the following terms:
     one-electron contribution =   -2749.48141614 Ry
     hartree contribution      =    1372.28429765 Ry
     xc contribution           =     -73.23164218 Ry
     ewald contribution        =    1014.62639047 Ry
     one-center paw contrib.   =    -792.58057192 Ry

     convergence has been achieved in  42 iterations

     Writing all to output data dir ./work/WSSe.save/

     init_run     :      2.04s CPU      2.17s WALL (       1 calls)
     electrons    :    152.28s CPU    161.46s WALL (       1 calls)

     Called by init_run:
     wfcinit      :      1.28s CPU      1.37s WALL (       1 calls)
     potinit      :      0.21s CPU      0.22s WALL (       1 calls)
     hinit0       :      0.42s CPU      0.42s WALL (       1 calls)

     Called by electrons:
     c_bands      :    126.95s CPU    134.72s WALL (      43 calls)
     sum_band     :     18.53s CPU     19.84s WALL (      43 calls)
     v_of_rho     :      0.39s CPU      0.41s WALL (      43 calls)
     newd         :      4.13s CPU      4.16s WALL (      43 calls)
     PAW_pot      :      2.17s CPU      2.25s WALL (      43 calls)
     mix_rho      :      0.17s CPU      0.17s WALL (      43 calls)

     Called by c_bands:
     init_us_2    :      1.88s CPU      1.97s WALL (    5307 calls)
     init_us_2:cp :      1.87s CPU      1.96s WALL (    5307 calls)
     cegterg      :    121.51s CPU    129.15s WALL (    2623 calls)

     Called by *egterg:
     cdiaghg      :      3.95s CPU      4.07s WALL (   14358 calls)
     h_psi        :     78.80s CPU     85.60s WALL (   14480 calls)
     s_psi        :      9.50s CPU      9.85s WALL (   14480 calls)
     g_psi        :      0.42s CPU      0.43s WALL (   11796 calls)

     Called by h_psi:
     h_psi:calbec :      9.54s CPU     10.44s WALL (   14480 calls)
     vloc_psi     :     59.68s CPU     64.97s WALL (   14480 calls)
     add_vuspsi   :      9.32s CPU      9.91s WALL (   14480 calls)

     General routines
     calbec       :     12.67s CPU     13.89s WALL (   17103 calls)
     fft          :      0.36s CPU      0.36s WALL (     474 calls)
     ffts         :      0.01s CPU      0.02s WALL (      43 calls)
     fftw         :     63.40s CPU     69.01s WALL (  329482 calls)

     Parallel routines

     PWSCF        :   2m34.70s CPU   2m44.15s WALL


   This run was terminated on:  10: 8:40  30Jan2023            

=------------------------------------------------------------------------------=
   JOB DONE.
=------------------------------------------------------------------------------=
