
     Program PWSCF v.7.1 starts on 30Jan2023 at 10:12: 1 

     This program is part of the open-source Quantum ESPRESSO suite
     for quantum simulation of materials; please cite
         "P. Giannozzi et al., J. Phys.:Condens. Matter 21 395502 (2009);
         "P. Giannozzi et al., J. Phys.:Condens. Matter 29 465901 (2017);
         "P. Giannozzi et al., J. Chem. Phys. 152 154105 (2020);
          URL http://www.quantum-espresso.org", 
     in publications or presentations arising from this work. More details at
     http://www.quantum-espresso.org/quote

     Parallel version (MPI), running on    12 processors

     MPI processes distributed on     1 nodes
     122350 MiB available memory on the printing compute node when the environment starts

     Waiting for input...
     Reading input from standard input

     Current dimensions of program PWSCF are:
     Max number of different atomic species (ntypx) = 10
     Max number of k-points (npk) =  40000
     Max angular momentum in pseudopotentials (lmaxx) =  4
     file W.pbe-spn-kjpaw_psl.1.0.0.UPF: wavefunction(s)  6S 5P 5D renormalized
     file S.pbe-n-kjpaw_psl.1.0.0.UPF: wavefunction(s)  3S 3P renormalized
     file Se.pbe-dn-kjpaw_psl.1.0.0.UPF: wavefunction(s)  4S 4P 3D renormalized
     Message from routine setup:
     using ibrav=0 with symmetry is DISCOURAGED, use correct ibrav instead

     R & G space division:  proc/nbgrp/npool/nimage =      12
     Subspace diagonalization in iterative solution of the eigenvalue problem:
     a serial algorithm will be used


     Parallelization info
     --------------------
     sticks:   dense  smooth     PW     G-vecs:    dense   smooth      PW
     Min          84      84     24                16850    16850    2563
     Max          86      86     26                16867    16867    2574
     Sum        1015    1015    295               202255   202255   30851

     Using Slab Decomposition



     bravais-lattice index     =            0
     lattice parameter (alat)  =       6.0471  a.u.
     unit-cell volume          =    1496.1226 (a.u.)^3
     number of atoms/cell      =            3
     number of atomic types    =            3
     number of electrons       =        36.00
     number of Kohn-Sham states=           18
     kinetic-energy cutoff     =     100.0000  Ry
     charge density cutoff     =     400.0000  Ry
     scf convergence threshold =      1.0E-08
     mixing beta               =       0.5000
     number of iterations used =            8  plain     mixing
     Exchange-correlation= SLA  PW   PBX  PBC
                           (   1   4   3   4   0   0   0)

     celldm(1)=   6.047124  celldm(2)=   0.000000  celldm(3)=   0.000000
     celldm(4)=   0.000000  celldm(5)=   0.000000  celldm(6)=   0.000000

     crystal axes: (cart. coord. in units of alat)
               a(1) = (   1.000000   0.000000   0.000000 )  
               a(2) = (  -0.500000   0.866025   0.000000 )  
               a(3) = (   0.000000   0.000000   7.812500 )  

     reciprocal axes: (cart. coord. in units 2 pi/alat)
               b(1) = (  1.000000  0.577350 -0.000000 )  
               b(2) = (  0.000000  1.154701  0.000000 )  
               b(3) = (  0.000000 -0.000000  0.128000 )  


     PseudoPot. # 1 for W  read from file:
     /home/mainadmin/research/danu/pseudo/W.pbe-spn-kjpaw_psl.1.0.0.UPF
     MD5 check sum: 03c3df5b60893f488392c7401945500a
     Pseudo is Projector augmented-wave + core cor, Zval = 14.0
     Generated using &quot;atomic&quot; code by A. Dal Corso  v.6.2.2
     Shape of augmentation charge: PSQ
     Using radial grid of 1273 points,  6 beta functions with: 
                l(1) =   0
                l(2) =   0
                l(3) =   1
                l(4) =   1
                l(5) =   2
                l(6) =   2
     Q(r) pseudized with 0 coefficients 


     PseudoPot. # 2 for S  read from file:
     /home/mainadmin/research/danu/pseudo/S.pbe-n-kjpaw_psl.1.0.0.UPF
     MD5 check sum: fb45dfebcf3e72a4e1bd4a866ec2e262
     Pseudo is Projector augmented-wave + core cor, Zval =  6.0
     Generated using &quot;atomic&quot; code by A. Dal Corso  v.6.3
     Shape of augmentation charge: PSQ
     Using radial grid of 1151 points,  6 beta functions with: 
                l(1) =   0
                l(2) =   0
                l(3) =   1
                l(4) =   1
                l(5) =   2
                l(6) =   2
     Q(r) pseudized with 0 coefficients 


     PseudoPot. # 3 for Se read from file:
     /home/mainadmin/research/danu/pseudo/Se.pbe-dn-kjpaw_psl.1.0.0.UPF
     MD5 check sum: ac240dd2bae32a30e0bf3a38df9c8785
     Pseudo is Projector augmented-wave + core cor, Zval = 16.0
     Generated using &quot;atomic&quot; code by A. Dal Corso  v.6.3
     Shape of augmentation charge: PSQ
     Using radial grid of 1211 points,  6 beta functions with: 
                l(1) =   0
                l(2) =   0
                l(3) =   1
                l(4) =   1
                l(5) =   2
                l(6) =   2
     Q(r) pseudized with 0 coefficients 


     atomic species   valence    mass     pseudopotential
        W             14.00   183.84000     W ( 1.00)
        S              6.00    32.06500     S ( 1.00)
        Se            16.00    78.96000     Se( 1.00)

      6 Sym. Ops. (no inversion) found



   Cartesian axes

     site n.     atom                  positions (alat units)
         1           Se  tau(   1) = (   0.5000000   0.2886751   4.5312500  )
         2           W   tau(   2) = (  -0.0000000   0.5773503   3.9062500  )
         3           S   tau(   3) = (   0.5000000   0.2886751  -4.5312500  )

     number of k points=    61
                       cart. coord. in units 2pi/alat
        k(    1) = (   0.0000000   0.0000000   0.0000000), wk =   0.0034722
        k(    2) = (   0.0000000   0.0481125   0.0000000), wk =   0.0208333
        k(    3) = (   0.0000000   0.0962250   0.0000000), wk =   0.0208333
        k(    4) = (   0.0000000   0.1443376   0.0000000), wk =   0.0208333
        k(    5) = (   0.0000000   0.1924501   0.0000000), wk =   0.0208333
        k(    6) = (   0.0000000   0.2405626   0.0000000), wk =   0.0208333
        k(    7) = (   0.0000000   0.2886751   0.0000000), wk =   0.0208333
        k(    8) = (   0.0000000   0.3367877   0.0000000), wk =   0.0208333
        k(    9) = (   0.0000000   0.3849002   0.0000000), wk =   0.0208333
        k(   10) = (   0.0000000   0.4330127   0.0000000), wk =   0.0208333
        k(   11) = (   0.0000000   0.4811252   0.0000000), wk =   0.0208333
        k(   12) = (   0.0000000   0.5292377   0.0000000), wk =   0.0208333
        k(   13) = (   0.0000000  -0.5773503   0.0000000), wk =   0.0104167
        k(   14) = (   0.0416667   0.0721688   0.0000000), wk =   0.0208333
        k(   15) = (   0.0416667   0.1202813   0.0000000), wk =   0.0416667
        k(   16) = (   0.0416667   0.1683938   0.0000000), wk =   0.0416667
        k(   17) = (   0.0416667   0.2165064   0.0000000), wk =   0.0416667
        k(   18) = (   0.0416667   0.2646189   0.0000000), wk =   0.0416667
        k(   19) = (   0.0416667   0.3127314   0.0000000), wk =   0.0416667
        k(   20) = (   0.0416667   0.3608439   0.0000000), wk =   0.0416667
        k(   21) = (   0.0416667   0.4089564   0.0000000), wk =   0.0416667
        k(   22) = (   0.0416667   0.4570690   0.0000000), wk =   0.0416667
        k(   23) = (   0.0416667   0.5051815   0.0000000), wk =   0.0416667
        k(   24) = (   0.0416667   0.5532940   0.0000000), wk =   0.0416667
        k(   25) = (   0.0833333   0.1443376   0.0000000), wk =   0.0208333
        k(   26) = (   0.0833333   0.1924501   0.0000000), wk =   0.0416667
        k(   27) = (   0.0833333   0.2405626   0.0000000), wk =   0.0416667
        k(   28) = (   0.0833333   0.2886751   0.0000000), wk =   0.0416667
        k(   29) = (   0.0833333   0.3367877   0.0000000), wk =   0.0416667
        k(   30) = (   0.0833333   0.3849002   0.0000000), wk =   0.0416667
        k(   31) = (   0.0833333   0.4330127   0.0000000), wk =   0.0416667
        k(   32) = (   0.0833333   0.4811252   0.0000000), wk =   0.0416667
        k(   33) = (   0.0833333   0.5292377   0.0000000), wk =   0.0416667
        k(   34) = (   0.0833333   0.5773503   0.0000000), wk =   0.0208333
        k(   35) = (   0.1250000   0.2165064   0.0000000), wk =   0.0208333
        k(   36) = (   0.1250000   0.2646189   0.0000000), wk =   0.0416667
        k(   37) = (   0.1250000   0.3127314   0.0000000), wk =   0.0416667
        k(   38) = (   0.1250000   0.3608439   0.0000000), wk =   0.0416667
        k(   39) = (   0.1250000   0.4089564   0.0000000), wk =   0.0416667
        k(   40) = (   0.1250000   0.4570690   0.0000000), wk =   0.0416667
        k(   41) = (   0.1250000   0.5051815   0.0000000), wk =   0.0416667
        k(   42) = (   0.1250000   0.5532940   0.0000000), wk =   0.0416667
        k(   43) = (   0.1666667   0.2886751   0.0000000), wk =   0.0208333
        k(   44) = (   0.1666667   0.3367877   0.0000000), wk =   0.0416667
        k(   45) = (   0.1666667   0.3849002   0.0000000), wk =   0.0416667
        k(   46) = (   0.1666667   0.4330127   0.0000000), wk =   0.0416667
        k(   47) = (   0.1666667   0.4811252   0.0000000), wk =   0.0416667
        k(   48) = (   0.1666667   0.5292377   0.0000000), wk =   0.0416667
        k(   49) = (   0.1666667   0.5773503   0.0000000), wk =   0.0208333
        k(   50) = (   0.2083333   0.3608439   0.0000000), wk =   0.0208333
        k(   51) = (   0.2083333   0.4089564   0.0000000), wk =   0.0416667
        k(   52) = (   0.2083333   0.4570690   0.0000000), wk =   0.0416667
        k(   53) = (   0.2083333   0.5051815   0.0000000), wk =   0.0416667
        k(   54) = (   0.2083333   0.5532940   0.0000000), wk =   0.0416667
        k(   55) = (   0.2500000   0.4330127   0.0000000), wk =   0.0208333
        k(   56) = (   0.2500000   0.4811252   0.0000000), wk =   0.0416667
        k(   57) = (   0.2500000   0.5292377   0.0000000), wk =   0.0416667
        k(   58) = (   0.2500000   0.5773503   0.0000000), wk =   0.0208333
        k(   59) = (   0.2916667   0.5051815   0.0000000), wk =   0.0208333
        k(   60) = (   0.2916667   0.5532940   0.0000000), wk =   0.0416667
        k(   61) = (   0.3333333   0.5773503   0.0000000), wk =   0.0069444

     Dense  grid:   202255 G-vectors     FFT dimensions: (  40,  40, 320)

     Estimated max dynamical RAM per process >     101.49 MB

     Estimated total dynamical RAM >       1.19 GB

     Initial potential from superposition of free atoms

     starting charge      35.9993, renormalised to      36.0000

     negative rho (up, down):  2.621E-04 0.000E+00
     Starting wfcs are   26 randomized atomic wfcs
     Checking if some PAW data can be deallocated... 

     total cpu time spent up to now is        3.9 secs

     Self-consistent Calculation

     iteration #  1     ecut=   100.00 Ry     beta= 0.50
     Davidson diagonalization with overlap
     ethr =  1.00E-02,  avg # of iterations =  2.0

     Threshold (ethr) on eigenvalues was too large:
     Diagonalizing with lowered threshold

     Davidson diagonalization with overlap
     ethr =  4.61E-04,  avg # of iterations =  2.1

     negative rho (up, down):  2.696E-04 0.000E+00

     total cpu time spent up to now is       13.8 secs

     total energy              =   -1228.31225768 Ry
     estimated scf accuracy    <       0.16868634 Ry

     iteration #  2     ecut=   100.00 Ry     beta= 0.50
     Davidson diagonalization with overlap
     ethr =  4.69E-04,  avg # of iterations =  8.3

     negative rho (up, down):  2.643E-04 0.000E+00

     total cpu time spent up to now is       21.9 secs

     total energy              =   -1228.08197350 Ry
     estimated scf accuracy    <       4.14923651 Ry

     iteration #  3     ecut=   100.00 Ry     beta= 0.50
     Davidson diagonalization with overlap
     ethr =  4.69E-04,  avg # of iterations =  7.6

     negative rho (up, down):  2.645E-04 0.000E+00

     total cpu time spent up to now is       29.7 secs

     total energy              =   -1228.37811690 Ry
     estimated scf accuracy    <       0.04673947 Ry

     iteration #  4     ecut=   100.00 Ry     beta= 0.50
     Davidson diagonalization with overlap
     ethr =  1.30E-04,  avg # of iterations =  4.7

     negative rho (up, down):  2.651E-04 0.000E+00

     total cpu time spent up to now is       35.9 secs

     total energy              =   -1228.37890869 Ry
     estimated scf accuracy    <       0.09983787 Ry

     iteration #  5     ecut=   100.00 Ry     beta= 0.50
     Davidson diagonalization with overlap
     ethr =  1.30E-04,  avg # of iterations =  3.7

     negative rho (up, down):  2.696E-04 0.000E+00

     total cpu time spent up to now is       41.4 secs

     total energy              =   -1228.38231613 Ry
     estimated scf accuracy    <       0.01377018 Ry

     iteration #  6     ecut=   100.00 Ry     beta= 0.50
     Davidson diagonalization with overlap
     ethr =  3.83E-05,  avg # of iterations =  5.2

     negative rho (up, down):  2.681E-04 0.000E+00

     total cpu time spent up to now is       48.0 secs

     total energy              =   -1228.38458427 Ry
     estimated scf accuracy    <       0.01318446 Ry

     iteration #  7     ecut=   100.00 Ry     beta= 0.50
     Davidson diagonalization with overlap
     ethr =  3.66E-05,  avg # of iterations =  2.6

     negative rho (up, down):  2.666E-04 0.000E+00

     total cpu time spent up to now is       53.1 secs

     total energy              =   -1228.38549570 Ry
     estimated scf accuracy    <       0.00124606 Ry

     iteration #  8     ecut=   100.00 Ry     beta= 0.50
     Davidson diagonalization with overlap
     ethr =  3.46E-06,  avg # of iterations =  5.6

     negative rho (up, down):  2.671E-04 0.000E+00

     total cpu time spent up to now is       60.0 secs

     total energy              =   -1228.38595069 Ry
     estimated scf accuracy    <       0.00194873 Ry

     iteration #  9     ecut=   100.00 Ry     beta= 0.50
     Davidson diagonalization with overlap
     ethr =  3.46E-06,  avg # of iterations =  1.3

     negative rho (up, down):  2.680E-04 0.000E+00

     total cpu time spent up to now is       64.4 secs

     total energy              =   -1228.38577423 Ry
     estimated scf accuracy    <       0.00117607 Ry

     iteration # 10     ecut=   100.00 Ry     beta= 0.50
     Davidson diagonalization with overlap
     ethr =  3.27E-06,  avg # of iterations =  3.4

     negative rho (up, down):  2.683E-04 0.000E+00

     total cpu time spent up to now is       69.8 secs

     total energy              =   -1228.38590561 Ry
     estimated scf accuracy    <       0.00000481 Ry

     iteration # 11     ecut=   100.00 Ry     beta= 0.50
     Davidson diagonalization with overlap
     ethr =  1.33E-08,  avg # of iterations =  8.8

     negative rho (up, down):  2.682E-04 0.000E+00

     total cpu time spent up to now is       78.4 secs

     total energy              =   -1228.38591522 Ry
     estimated scf accuracy    <       0.00003708 Ry

     iteration # 12     ecut=   100.00 Ry     beta= 0.50
     Davidson diagonalization with overlap
     ethr =  1.33E-08,  avg # of iterations =  4.0

     negative rho (up, down):  2.681E-04 0.000E+00

     total cpu time spent up to now is       84.1 secs

     total energy              =   -1228.38591435 Ry
     estimated scf accuracy    <       0.00000749 Ry

     iteration # 13     ecut=   100.00 Ry     beta= 0.50
     Davidson diagonalization with overlap
     ethr =  1.33E-08,  avg # of iterations =  6.0

     negative rho (up, down):  2.682E-04 0.000E+00

     total cpu time spent up to now is       91.1 secs

     total energy              =   -1228.38591653 Ry
     estimated scf accuracy    <       0.00001759 Ry

     iteration # 14     ecut=   100.00 Ry     beta= 0.50
     Davidson diagonalization with overlap
     ethr =  1.33E-08,  avg # of iterations =  2.0

     negative rho (up, down):  2.683E-04 0.000E+00

     total cpu time spent up to now is       96.0 secs

     total energy              =   -1228.38591583 Ry
     estimated scf accuracy    <       0.00000891 Ry

     iteration # 15     ecut=   100.00 Ry     beta= 0.50
     Davidson diagonalization with overlap
     ethr =  1.33E-08,  avg # of iterations =  3.4

     negative rho (up, down):  2.683E-04 0.000E+00

     total cpu time spent up to now is      101.3 secs

     total energy              =   -1228.38591617 Ry
     estimated scf accuracy    <       0.00000118 Ry

     iteration # 16     ecut=   100.00 Ry     beta= 0.50
     Davidson diagonalization with overlap
     ethr =  3.27E-09,  avg # of iterations =  5.0

     negative rho (up, down):  2.683E-04 0.000E+00

     total cpu time spent up to now is      107.3 secs

     total energy              =   -1228.38591638 Ry
     estimated scf accuracy    <       0.00000016 Ry

     iteration # 17     ecut=   100.00 Ry     beta= 0.50
     Davidson diagonalization with overlap
     ethr =  4.50E-10,  avg # of iterations =  3.8

     negative rho (up, down):  2.684E-04 0.000E+00

     total cpu time spent up to now is      112.9 secs

     End of self-consistent calculation

          k = 0.0000 0.0000 0.0000 ( 25363 PWs)   bands (ev):

   -75.2378 -48.4364 -48.4364 -48.4330 -48.4317 -48.4317 -39.4086 -39.1501
   -39.1501 -14.9918 -13.8023  -6.8563  -3.7188  -2.1963  -1.8494  -1.8494
    -0.7798  -0.7798

          k = 0.0000 0.0481 0.0000 ( 25407 PWs)   bands (ev):

   -75.2376 -48.4364 -48.4363 -48.4330 -48.4318 -48.4317 -39.4079 -39.1547
   -39.1512 -14.9670 -13.7831  -6.8173  -3.7244  -2.1805  -1.9283  -1.8211
    -0.8425  -0.8257

          k = 0.0000 0.0962 0.0000 ( 25371 PWs)   bands (ev):

   -75.2369 -48.4364 -48.4361 -48.4328 -48.4319 -48.4317 -39.4059 -39.1682
   -39.1545 -14.8931 -13.7260  -6.7019  -3.7419  -2.1648  -2.1268  -1.7386
    -1.0369  -0.9531

          k = 0.0000 0.1443 0.0000 ( 25355 PWs)   bands (ev):

   -75.2358 -48.4365 -48.4356 -48.4326 -48.4320 -48.4317 -39.4026 -39.1896
   -39.1596 -14.7723 -13.6326  -6.5160  -3.7740  -2.5085  -2.0734  -1.6094
    -1.3665  -1.1381

          k = 0.0000 0.1925 0.0000 ( 25303 PWs)   bands (ev):

   -75.2344 -48.4365 -48.4351 -48.4324 -48.4320 -48.4317 -39.3983 -39.2175
   -39.1664 -14.6081 -13.5058  -6.2702  -3.8275  -2.9513  -2.0263  -1.8002
    -1.4486  -1.3534

          k = 0.0000 0.2406 0.0000 ( 25277 PWs)   bands (ev):

   -75.2327 -48.4366 -48.4345 -48.4326 -48.4317 -48.4317 -39.3933 -39.2497
   -39.1742 -14.4060 -13.3499  -5.9824  -3.9238  -3.4459  -2.3065  -1.9964
    -1.5817  -1.2738

          k = 0.0000 0.2887 0.0000 ( 25279 PWs)   bands (ev):

   -75.2309 -48.4368 -48.4340 -48.4328 -48.4316 -48.4312 -39.3880 -39.2841
   -39.1826 -14.1738 -13.1711  -5.6836  -4.1598  -3.8839  -2.7579  -2.0494
    -1.8009  -1.1190

          k = 0.0000 0.3368 0.0000 ( 25273 PWs)   bands (ev):

   -75.2292 -48.4369 -48.4336 -48.4331 -48.4313 -48.4307 -39.3826 -39.3183
   -39.1910 -13.9221 -12.9778  -5.4422  -4.6023  -4.1649  -3.1000  -2.1302
    -2.0017  -1.0083

          k = 0.0000 0.3849 0.0000 ( 25263 PWs)   bands (ev):

   -75.2275 -48.4370 -48.4333 -48.4333 -48.4309 -48.4302 -39.3777 -39.3500
   -39.1988 -13.6660 -12.7813  -5.4788  -4.8973  -4.4177  -3.3036  -2.1822
    -2.1754  -0.9516

          k = 0.0000 0.4330 0.0000 ( 25210 PWs)   bands (ev):

   -75.2261 -48.4372 -48.4335 -48.4332 -48.4305 -48.4298 -39.3774 -39.3731
   -39.2055 -13.4252 -12.5964  -5.8455  -5.0473  -4.5138  -3.4108  -2.3159
    -2.1662  -0.9373

          k = 0.0000 0.4811 0.0000 ( 25220 PWs)   bands (ev):

   -75.2250 -48.4373 -48.4337 -48.4331 -48.4302 -48.4295 -39.3979 -39.3700
   -39.2107 -13.2242 -12.4415  -6.2091  -5.2654  -4.4763  -3.4665  -2.4189
    -2.0902  -0.9447

          k = 0.0000 0.5292 0.0000 ( 25214 PWs)   bands (ev):

   -75.2243 -48.4373 -48.4338 -48.4331 -48.4299 -48.4293 -39.4108 -39.3680
   -39.2139 -13.0892 -12.3367  -6.4558  -5.4320  -4.4416  -3.4936  -2.4818
    -2.0049  -0.9561

          k = 0.0000-0.5774 0.0000 ( 25250 PWs)   bands (ev):

   -75.2240 -48.4374 -48.4338 -48.4331 -48.4299 -48.4292 -39.4153 -39.3673
   -39.2150 -13.0415 -12.2994  -6.5427  -5.4921  -4.4306  -3.5017  -2.5030
    -1.9681  -0.9611

          k = 0.0417 0.0722 0.0000 ( 25385 PWs)   bands (ev):

   -75.2371 -48.4364 -48.4361 -48.4329 -48.4318 -48.4317 -39.4065 -39.1637
   -39.1535 -14.9176 -13.7449  -6.7400  -3.7359  -2.1523  -2.0786  -1.7664
    -0.9766  -0.9069

          k = 0.0417 0.1203 0.0000 ( 25367 PWs)   bands (ev):

   -75.2362 -48.4364 -48.4358 -48.4327 -48.4320 -48.4317 -39.4039 -39.1810
   -39.1578 -14.8203 -13.6697  -6.5892  -3.7600  -2.3697  -2.0947  -1.6630
    -1.2483  -1.0543

          k = 0.0417 0.1684 0.0000 ( 25324 PWs)   bands (ev):

   -75.2350 -48.4365 -48.4354 -48.4324 -48.4321 -48.4317 -39.4001 -39.2054
   -39.1640 -14.6777 -13.5595  -6.3725  -3.8002  -2.7625  -2.0379  -1.6406
    -1.5225  -1.2492

          k = 0.0417 0.2165 0.0000 ( 25288 PWs)   bands (ev):

   -75.2334 -48.4365 -48.4348 -48.4324 -48.4320 -48.4316 -39.3955 -39.2351
   -39.1716 -14.4945 -13.4181  -6.1038  -3.8672  -3.2286  -2.1280  -1.9893
    -1.4705  -1.3616

          k = 0.0417 0.2646 0.0000 ( 25288 PWs)   bands (ev):

   -75.2317 -48.4366 -48.4343 -48.4327 -48.4317 -48.4313 -39.3903 -39.2681
   -39.1801 -14.2770 -13.2505  -5.8056  -4.0062  -3.7084  -2.5978  -2.0250
    -1.6951  -1.2063

          k = 0.0417 0.3127 0.0000 ( 25281 PWs)   bands (ev):

   -75.2299 -48.4368 -48.4338 -48.4329 -48.4315 -48.4309 -39.3850 -39.3020
   -39.1888 -14.0345 -13.0639  -5.5210  -4.3760  -4.0331  -2.9991  -2.1071
    -1.9102  -1.0826

          k = 0.0417 0.3608 0.0000 ( 25257 PWs)   bands (ev):

   -75.2282 -48.4369 -48.4334 -48.4332 -48.4312 -48.4304 -39.3798 -39.3346
   -39.1973 -13.7797 -12.8682  -5.3757  -4.7882  -4.2941  -3.2599  -2.1957
    -2.1000  -1.0129

          k = 0.0417 0.4090 0.0000 ( 25233 PWs)   bands (ev):

   -75.2267 -48.4370 -48.4334 -48.4332 -48.4308 -48.4299 -39.3752 -39.3637
   -39.2048 -13.5298 -12.6764  -5.6274  -4.9445  -4.4893  -3.3949  -2.2960
    -2.1971  -0.9937

          k = 0.0417 0.4571 0.0000 ( 25217 PWs)   bands (ev):

   -75.2254 -48.4371 -48.4336 -48.4332 -48.4304 -48.4296 -39.3875 -39.3713
   -39.2110 -13.3069 -12.5050  -6.0174  -5.1399  -4.4891  -3.4593  -2.4220
    -2.1635  -1.0026

          k = 0.0417 0.5052 0.0000 ( 25217 PWs)   bands (ev):

   -75.2245 -48.4372 -48.4337 -48.4331 -48.4301 -48.4294 -39.4042 -39.3686
   -39.2153 -13.1369 -12.3733  -6.3280  -5.3444  -4.4426  -3.4887  -2.5141
    -2.0845  -1.0180

          k = 0.0417 0.5533 0.0000 ( 25253 PWs)   bands (ev):

   -75.2240 -48.4373 -48.4338 -48.4331 -48.4299 -48.4293 -39.4128 -39.3673
   -39.2176 -13.0442 -12.3010  -6.4970  -5.4614  -4.4190  -3.4998  -2.5620
    -2.0232  -1.0275

          k = 0.0833 0.1443 0.0000 ( 25341 PWs)   bands (ev):

   -75.2352 -48.4364 -48.4355 -48.4324 -48.4321 -48.4317 -39.4007 -39.2010
   -39.1635 -14.7011 -13.5776  -6.4071  -3.7904  -2.6942  -2.0433  -1.5966
    -1.5525  -1.2012

          k = 0.0833 0.1925 0.0000 ( 25301 PWs)   bands (ev):

   -75.2338 -48.4364 -48.4351 -48.4323 -48.4321 -48.4316 -39.3966 -39.2267
   -39.1711 -14.5394 -13.4527  -6.1654  -3.8364  -3.1039  -2.0501  -1.9928
    -1.4259  -1.3888

          k = 0.0833 0.2406 0.0000 ( 25275 PWs)   bands (ev):

   -75.2322 -48.4365 -48.4346 -48.4325 -48.4320 -48.4313 -39.3918 -39.2565
   -39.1800 -14.3404 -13.2992  -5.8806  -3.9157  -3.5620  -2.5211  -2.0167
    -1.6036  -1.2948

          k = 0.0833 0.2887 0.0000 ( 25270 PWs)   bands (ev):

   -75.2305 -48.4365 -48.4341 -48.4328 -48.4318 -48.4309 -39.3866 -39.2883
   -39.1895 -14.1120 -13.1232  -5.5811  -4.1655  -3.9252  -2.9669  -2.1015
    -1.8264  -1.1820

          k = 0.0833 0.3368 0.0000 ( 25268 PWs)   bands (ev):

   -75.2287 -48.4366 -48.4337 -48.4330 -48.4316 -48.4304 -39.3814 -39.3200
   -39.1990 -13.8650 -12.9332  -5.3333  -4.6143  -4.1511  -3.2877  -2.2240
    -2.0400  -1.1175

          k = 0.0833 0.3849 0.0000 ( 25251 PWs)   bands (ev):

   -75.2271 -48.4368 -48.4335 -48.4332 -48.4313 -48.4300 -39.3766 -39.3492
   -39.2079 -13.6140 -12.7403  -5.3908  -4.8560  -4.4021  -3.4465  -2.3453
    -2.2130  -1.1096

          k = 0.0833 0.4330 0.0000 ( 25256 PWs)   bands (ev):

   -75.2258 -48.4369 -48.4335 -48.4333 -48.4308 -48.4296 -39.3748 -39.3720
   -39.2155 -13.3787 -12.5592  -5.7697  -4.9803  -4.4858  -3.5028  -2.4844
    -2.2783  -1.1303

          k = 0.0833 0.4811 0.0000 ( 25230 PWs)   bands (ev):

   -75.2247 -48.4369 -48.4336 -48.4332 -48.4304 -48.4294 -39.3936 -39.3692
   -39.2213 -13.1828 -12.4078  -6.1252  -5.2037  -4.4298  -3.5126  -2.6200
    -2.2530  -1.1496

          k = 0.0833 0.5292 0.0000 ( 25244 PWs)   bands (ev):

   -75.2240 -48.4370 -48.4337 -48.4332 -48.4301 -48.4293 -39.4056 -39.3673
   -39.2250 -13.0516 -12.3055  -6.3640  -5.3714  -4.3880  -3.5055  -2.7146
    -2.2049  -1.1563

          k = 0.0833 0.5774 0.0000 ( 25240 PWs)   bands (ev):

   -75.2238 -48.4370 -48.4338 -48.4332 -48.4300 -48.4293 -39.4097 -39.3666
   -39.2262 -13.0052 -12.2692  -6.4479  -5.4313  -4.3754  -3.5004  -2.7487
    -2.1831  -1.1564

          k = 0.1250 0.2165 0.0000 ( 25273 PWs)   bands (ev):

   -75.2324 -48.4364 -48.4347 -48.4325 -48.4320 -48.4313 -39.3923 -39.2522
   -39.1803 -14.3618 -13.3156  -5.9059  -3.8849  -3.5050  -2.5010  -2.0148
    -1.5658  -1.3318

          k = 0.1250 0.2646 0.0000 ( 25274 PWs)   bands (ev):

   -75.2308 -48.4363 -48.4344 -48.4327 -48.4320 -48.4309 -39.3875 -39.2802
   -39.1909 -14.1515 -13.1534  -5.6126  -4.0243  -3.8727  -2.9719  -2.1026
    -1.7717  -1.2480

          k = 0.1250 0.3127 0.0000 ( 25282 PWs)   bands (ev):

   -75.2291 -48.4364 -48.4340 -48.4329 -48.4319 -48.4304 -39.3825 -39.3089
   -39.2020 -13.9177 -12.9733  -5.3219  -4.4472  -4.0233  -3.3689  -2.2548
    -1.9922  -1.1997

          k = 0.1250 0.3608 0.0000 ( 25287 PWs)   bands (ev):

   -75.2275 -48.4364 -48.4337 -48.4331 -48.4317 -48.4300 -39.3777 -39.3363
   -39.2129 -13.6730 -12.7848  -5.1802  -4.7932  -4.2562  -3.5793  -2.4245
    -2.2080  -1.2070

          k = 0.1250 0.4090 0.0000 ( 25262 PWs)   bands (ev):

   -75.2261 -48.4365 -48.4335 -48.4333 -48.4313 -48.4297 -39.3734 -39.3607
   -39.2226 -13.4341 -12.6007  -5.4932  -4.8187  -4.4634  -3.6283  -2.5832
    -2.3854  -1.2388

          k = 0.1250 0.4571 0.0000 ( 25244 PWs)   bands (ev):

   -75.2249 -48.4365 -48.4335 -48.4333 -48.4309 -48.4294 -39.3807 -39.3697
   -39.2306 -13.2223 -12.4368  -5.8690  -5.0200  -4.4192  -3.6075  -2.7441
    -2.4796  -1.2551

          k = 0.1250 0.5052 0.0000 ( 25230 PWs)   bands (ev):

   -75.2240 -48.4366 -48.4336 -48.4333 -48.4305 -48.4293 -39.3946 -39.3673
   -39.2362 -13.0617 -12.3115  -6.1572  -5.2293  -4.3502  -3.5580  -2.8958
    -2.5031  -1.2447

          k = 0.1250 0.5533 0.0000 ( 25232 PWs)   bands (ev):

   -75.2236 -48.4366 -48.4336 -48.4333 -48.4303 -48.4293 -39.4019 -39.3660
   -39.2392 -12.9744 -12.2430  -6.3127  -5.3453  -4.3197  -3.5123  -2.9952
    -2.5024  -1.2269

          k = 0.1667 0.2887 0.0000 ( 25283 PWs)   bands (ev):

   -75.2292 -48.4362 -48.4341 -48.4328 -48.4320 -48.4304 -39.3828 -39.3046
   -39.2035 -13.9356 -12.9868  -5.3199  -4.3761  -3.9647  -3.4202  -2.2696
    -1.9729  -1.2283

          k = 0.1667 0.3368 0.0000 ( 25301 PWs)   bands (ev):

   -75.2277 -48.4361 -48.4339 -48.4330 -48.4319 -48.4300 -39.3782 -39.3283
   -39.2167 -13.7033 -12.8076  -5.0557  -4.7547  -4.0897  -3.7499  -2.4868
    -2.1963  -1.2525

          k = 0.1667 0.3849 0.0000 ( 25272 PWs)   bands (ev):

   -75.2262 -48.4361 -48.4337 -48.4331 -48.4317 -48.4297 -39.3739 -39.3498
   -39.2295 -13.4691 -12.6266  -5.2369  -4.7391  -4.3764  -3.8188  -2.7066
    -2.4248  -1.2932

          k = 0.1667 0.4330 0.0000 ( 25235 PWs)   bands (ev):

   -75.2250 -48.4361 -48.4336 -48.4332 -48.4314 -48.4295 -39.3705 -39.3677
   -39.2406 -13.2513 -12.4577  -5.6005  -4.8130  -4.4322  -3.7821  -2.8971
    -2.6356  -1.3049

          k = 0.1667 0.4811 0.0000 ( 25239 PWs)   bands (ev):

   -75.2240 -48.4361 -48.4335 -48.4333 -48.4310 -48.4294 -39.3819 -39.3672
   -39.2493 -13.0717 -12.3175  -5.9049  -5.0516  -4.3258  -3.7036  -3.0605
    -2.7961  -1.2748

          k = 0.1667 0.5292 0.0000 ( 25235 PWs)   bands (ev):

   -75.2234 -48.4362 -48.4335 -48.4334 -48.4307 -48.4294 -39.3905 -39.3655
   -39.2548 -12.9522 -12.2235  -6.1069  -5.2150  -4.2686  -3.6012  -3.2132
    -2.8823  -1.2283

          k = 0.1667 0.5774 0.0000 ( 25242 PWs)   bands (ev):

   -75.2232 -48.4362 -48.4335 -48.4334 -48.4305 -48.4294 -39.3934 -39.3649
   -39.2567 -12.9102 -12.1902  -6.1777  -5.2719  -4.2530  -3.5312  -3.3018
    -2.9068  -1.2062

          k = 0.2083 0.3608 0.0000 ( 25284 PWs)   bands (ev):

   -75.2263 -48.4359 -48.4338 -48.4330 -48.4319 -48.4297 -39.3741 -39.3455
   -39.2324 -13.4810 -12.6354  -5.1113  -4.7493  -4.2761  -3.9510  -2.7640
    -2.4298  -1.3070

          k = 0.2083 0.4090 0.0000 ( 25256 PWs)   bands (ev):

   -75.2251 -48.4358 -48.4338 -48.4331 -48.4317 -48.4295 -39.3704 -39.3597
   -39.2476 -13.2666 -12.4687  -5.4041  -4.6342  -4.4734  -3.9547  -3.0361
    -2.6750  -1.3186

          k = 0.2083 0.4571 0.0000 ( 25254 PWs)   bands (ev):

   -75.2240 -48.4357 -48.4337 -48.4331 -48.4315 -48.4294 -39.3708 -39.3671
   -39.2608 -13.0789 -12.3217  -5.6669  -4.8787  -4.3309  -3.8987  -3.2567
    -2.9125  -1.2738

          k = 0.2083 0.5052 0.0000 ( 25241 PWs)   bands (ev):

   -75.2233 -48.4357 -48.4337 -48.4331 -48.4311 -48.4294 -39.3778 -39.3651
   -39.2705 -12.9382 -12.2107  -5.8667  -5.0709  -4.2425  -3.8062  -3.4031
    -3.1210  -1.1977

          k = 0.2083 0.5533 0.0000 ( 25216 PWs)   bands (ev):

   -75.2230 -48.4357 -48.4337 -48.4332 -48.4309 -48.4295 -39.3814 -39.3640
   -39.2758 -12.8625 -12.1504  -5.9753  -5.1716  -4.2133  -3.7041  -3.4883
    -3.2597  -1.1395

          k = 0.2500 0.4330 0.0000 ( 25286 PWs)   bands (ev):

   -75.2240 -48.4355 -48.4338 -48.4330 -48.4317 -48.4294 -39.3677 -39.3655
   -39.2656 -13.0816 -12.3233  -5.5585  -4.7994  -4.3403  -4.0011  -3.3506
    -2.9297  -1.2693

          k = 0.2500 0.4811 0.0000 ( 25264 PWs)   bands (ev):

   -75.2233 -48.4353 -48.4339 -48.4329 -48.4315 -48.4294 -39.3685 -39.3649
   -39.2815 -12.9316 -12.2044  -5.6769  -4.9771  -4.2297  -3.9978  -3.5782
    -3.1658  -1.1699

          k = 0.2500 0.5292 0.0000 ( 25241 PWs)   bands (ev):

   -75.2228 -48.4352 -48.4339 -48.4328 -48.4313 -48.4295 -39.3686 -39.3635
   -39.2930 -12.8333 -12.1258  -5.7516  -5.0961  -4.2214  -3.9379  -3.6798
    -3.3589  -1.0713

          k = 0.2500 0.5774 0.0000 ( 25186 PWs)   bands (ev):

   -75.2226 -48.4352 -48.4339 -48.4328 -48.4312 -48.4296 -39.3683 -39.3630
   -39.2972 -12.7990 -12.0983  -5.7773  -5.1373  -4.2399  -3.8927  -3.6965
    -3.4480  -1.0300

          k = 0.2917 0.5052 0.0000 ( 25246 PWs)   bands (ev):

   -75.2227 -48.4351 -48.4340 -48.4326 -48.4316 -48.4296 -39.3634 -39.3620
   -39.3010 -12.8234 -12.1175  -5.6333  -5.0862  -4.2216  -4.0565  -3.7617
    -3.3653  -1.0422

          k = 0.2917 0.5533 0.0000 ( 25207 PWs)   bands (ev):

   -75.2224 -48.4349 -48.4341 -48.4324 -48.4316 -48.4297 -39.3625 -39.3548
   -39.3151 -12.7661 -12.0711  -5.5699  -5.1774  -4.3228  -3.9941  -3.8453
    -3.4788  -0.9534

          k = 0.3333 0.5774 0.0000 ( 25200 PWs)   bands (ev):

   -75.2223 -48.4347 -48.4343 -48.4321 -48.4319 -48.4297 -39.3621 -39.3407
   -39.3321 -12.7430 -12.0523  -5.3716  -5.3366  -4.3850  -3.9879  -3.9141
    -3.5108  -0.9044

     highest occupied level (ev):    -0.7798

!    total energy              =   -1228.38591641 Ry
     total all-electron energy =    -37944.476347 Ry
     estimated scf accuracy    <          4.8E-09 Ry

     The total energy is the sum of the following terms:
     one-electron contribution =   -2749.50724468 Ry
     hartree contribution      =    1372.30424121 Ry
     xc contribution           =     -73.23075773 Ry
     ewald contribution        =    1014.62639047 Ry
     one-center paw contrib.   =    -792.57854567 Ry

     convergence has been achieved in  17 iterations

     Writing all to output data dir ./work/WSSe.save/

     init_run     :      3.49s CPU      3.70s WALL (       1 calls)
     electrons    :    101.00s CPU    108.99s WALL (       1 calls)

     Called by init_run:
     wfcinit      :      2.14s CPU      2.25s WALL (       1 calls)
     potinit      :      0.35s CPU      0.35s WALL (       1 calls)
     hinit0       :      0.75s CPU      0.76s WALL (       1 calls)

     Called by electrons:
     c_bands      :     86.12s CPU     90.28s WALL (      18 calls)
     sum_band     :     11.58s CPU     13.96s WALL (      18 calls)
     v_of_rho     :      0.30s CPU      0.32s WALL (      18 calls)
     newd         :      2.13s CPU      3.58s WALL (      18 calls)
     PAW_pot      :      0.87s CPU      0.91s WALL (      18 calls)
     mix_rho      :      0.14s CPU      0.14s WALL (      18 calls)

     Called by c_bands:
     init_us_2    :      1.43s CPU      1.47s WALL (    2257 calls)
     init_us_2:cp :      1.43s CPU      1.46s WALL (    2257 calls)
     cegterg      :     81.98s CPU     86.05s WALL (    1098 calls)

     Called by *egterg:
     cdiaghg      :      1.68s CPU      1.71s WALL (    5886 calls)
     h_psi        :     53.68s CPU     57.58s WALL (    6008 calls)
     s_psi        :      6.51s CPU      6.60s WALL (    6008 calls)
     g_psi        :      0.29s CPU      0.29s WALL (    4849 calls)

     Called by h_psi:
     h_psi:calbec :      9.17s CPU      9.78s WALL (    6008 calls)
     vloc_psi     :     37.05s CPU     40.17s WALL (    6008 calls)
     add_vuspsi   :      6.88s CPU      7.05s WALL (    6008 calls)

     General routines
     calbec       :     11.49s CPU     12.31s WALL (    7106 calls)
     fft          :      0.46s CPU      0.47s WALL (     199 calls)
     ffts         :      0.01s CPU      0.01s WALL (      18 calls)
     fftw         :     38.30s CPU     41.60s WALL (  132648 calls)

     Parallel routines

     PWSCF        :   1m44.92s CPU   1m53.34s WALL


   This run was terminated on:  10:13:54  30Jan2023            

=------------------------------------------------------------------------------=
   JOB DONE.
=------------------------------------------------------------------------------=
