
     Program PWSCF v.7.1 starts on 30Jan2023 at 10: 1:30 

     This program is part of the open-source Quantum ESPRESSO suite
     for quantum simulation of materials; please cite
         "P. Giannozzi et al., J. Phys.:Condens. Matter 21 395502 (2009);
         "P. Giannozzi et al., J. Phys.:Condens. Matter 29 465901 (2017);
         "P. Giannozzi et al., J. Chem. Phys. 152 154105 (2020);
          URL http://www.quantum-espresso.org", 
     in publications or presentations arising from this work. More details at
     http://www.quantum-espresso.org/quote

     Parallel version (MPI), running on    12 processors

     MPI processes distributed on     1 nodes
     122752 MiB available memory on the printing compute node when the environment starts

     Waiting for input...
     Reading input from standard input

     Current dimensions of program PWSCF are:
     Max number of different atomic species (ntypx) = 10
     Max number of k-points (npk) =  40000
     Max angular momentum in pseudopotentials (lmaxx) =  4
     file W.pbe-spn-kjpaw_psl.1.0.0.UPF: wavefunction(s)  6S 5P 5D renormalized
     file S.pbe-n-kjpaw_psl.1.0.0.UPF: wavefunction(s)  3S 3P renormalized
     file Se.pbe-dn-kjpaw_psl.1.0.0.UPF: wavefunction(s)  4S 4P 3D renormalized
     Message from routine setup:
     using ibrav=0 with symmetry is DISCOURAGED, use correct ibrav instead

     R & G space division:  proc/nbgrp/npool/nimage =      12
     Subspace diagonalization in iterative solution of the eigenvalue problem:
     a serial algorithm will be used


     Parallelization info
     --------------------
     sticks:   dense  smooth     PW     G-vecs:    dense   smooth      PW
     Min          25      25      7                 2767     2767     477
     Max          26      26      8                 2794     2794     512
     Sum         301     301     91                33273    33273    5871

     Using Slab Decomposition



     bravais-lattice index     =            0
     lattice parameter (alat)  =       6.0471  a.u.
     unit-cell volume          =    1496.1226 (a.u.)^3
     number of atoms/cell      =            3
     number of atomic types    =            3
     number of electrons       =        36.00
     number of Kohn-Sham states=           18
     kinetic-energy cutoff     =      30.0000  Ry
     charge density cutoff     =     120.0000  Ry
     scf convergence threshold =      1.0E-08
     mixing beta               =       0.5000
     number of iterations used =            8  plain     mixing
     Exchange-correlation= SLA  PW   PBX  PBC
                           (   1   4   3   4   0   0   0)

     celldm(1)=   6.047124  celldm(2)=   0.000000  celldm(3)=   0.000000
     celldm(4)=   0.000000  celldm(5)=   0.000000  celldm(6)=   0.000000

     crystal axes: (cart. coord. in units of alat)
               a(1) = (   1.000000   0.000000   0.000000 )  
               a(2) = (  -0.500000   0.866025   0.000000 )  
               a(3) = (   0.000000   0.000000   7.812500 )  

     reciprocal axes: (cart. coord. in units 2 pi/alat)
               b(1) = (  1.000000  0.577350 -0.000000 )  
               b(2) = (  0.000000  1.154701  0.000000 )  
               b(3) = (  0.000000 -0.000000  0.128000 )  


     PseudoPot. # 1 for W  read from file:
     /home/mainadmin/research/danu/pseudo/W.pbe-spn-kjpaw_psl.1.0.0.UPF
     MD5 check sum: 03c3df5b60893f488392c7401945500a
     Pseudo is Projector augmented-wave + core cor, Zval = 14.0
     Generated using &quot;atomic&quot; code by A. Dal Corso  v.6.2.2
     Shape of augmentation charge: PSQ
     Using radial grid of 1273 points,  6 beta functions with: 
                l(1) =   0
                l(2) =   0
                l(3) =   1
                l(4) =   1
                l(5) =   2
                l(6) =   2
     Q(r) pseudized with 0 coefficients 


     PseudoPot. # 2 for S  read from file:
     /home/mainadmin/research/danu/pseudo/S.pbe-n-kjpaw_psl.1.0.0.UPF
     MD5 check sum: fb45dfebcf3e72a4e1bd4a866ec2e262
     Pseudo is Projector augmented-wave + core cor, Zval =  6.0
     Generated using &quot;atomic&quot; code by A. Dal Corso  v.6.3
     Shape of augmentation charge: PSQ
     Using radial grid of 1151 points,  6 beta functions with: 
                l(1) =   0
                l(2) =   0
                l(3) =   1
                l(4) =   1
                l(5) =   2
                l(6) =   2
     Q(r) pseudized with 0 coefficients 


     PseudoPot. # 3 for Se read from file:
     /home/mainadmin/research/danu/pseudo/Se.pbe-dn-kjpaw_psl.1.0.0.UPF
     MD5 check sum: ac240dd2bae32a30e0bf3a38df9c8785
     Pseudo is Projector augmented-wave + core cor, Zval = 16.0
     Generated using &quot;atomic&quot; code by A. Dal Corso  v.6.3
     Shape of augmentation charge: PSQ
     Using radial grid of 1211 points,  6 beta functions with: 
                l(1) =   0
                l(2) =   0
                l(3) =   1
                l(4) =   1
                l(5) =   2
                l(6) =   2
     Q(r) pseudized with 0 coefficients 


     atomic species   valence    mass     pseudopotential
        W             14.00   183.84000     W ( 1.00)
        S              6.00    32.06500     S ( 1.00)
        Se            16.00    78.96000     Se( 1.00)

      6 Sym. Ops. (no inversion) found



   Cartesian axes

     site n.     atom                  positions (alat units)
         1           Se  tau(   1) = (   0.5000000   0.2886751   4.5312500  )
         2           W   tau(   2) = (  -0.0000000   0.5773503   3.9062500  )
         3           S   tau(   3) = (   0.5000000   0.2886751  -4.5312500  )

     number of k points=    61
                       cart. coord. in units 2pi/alat
        k(    1) = (   0.0000000   0.0000000   0.0000000), wk =   0.0034722
        k(    2) = (   0.0000000   0.0481125   0.0000000), wk =   0.0208333
        k(    3) = (   0.0000000   0.0962250   0.0000000), wk =   0.0208333
        k(    4) = (   0.0000000   0.1443376   0.0000000), wk =   0.0208333
        k(    5) = (   0.0000000   0.1924501   0.0000000), wk =   0.0208333
        k(    6) = (   0.0000000   0.2405626   0.0000000), wk =   0.0208333
        k(    7) = (   0.0000000   0.2886751   0.0000000), wk =   0.0208333
        k(    8) = (   0.0000000   0.3367877   0.0000000), wk =   0.0208333
        k(    9) = (   0.0000000   0.3849002   0.0000000), wk =   0.0208333
        k(   10) = (   0.0000000   0.4330127   0.0000000), wk =   0.0208333
        k(   11) = (   0.0000000   0.4811252   0.0000000), wk =   0.0208333
        k(   12) = (   0.0000000   0.5292377   0.0000000), wk =   0.0208333
        k(   13) = (   0.0000000  -0.5773503   0.0000000), wk =   0.0104167
        k(   14) = (   0.0416667   0.0721688   0.0000000), wk =   0.0208333
        k(   15) = (   0.0416667   0.1202813   0.0000000), wk =   0.0416667
        k(   16) = (   0.0416667   0.1683938   0.0000000), wk =   0.0416667
        k(   17) = (   0.0416667   0.2165064   0.0000000), wk =   0.0416667
        k(   18) = (   0.0416667   0.2646189   0.0000000), wk =   0.0416667
        k(   19) = (   0.0416667   0.3127314   0.0000000), wk =   0.0416667
        k(   20) = (   0.0416667   0.3608439   0.0000000), wk =   0.0416667
        k(   21) = (   0.0416667   0.4089564   0.0000000), wk =   0.0416667
        k(   22) = (   0.0416667   0.4570690   0.0000000), wk =   0.0416667
        k(   23) = (   0.0416667   0.5051815   0.0000000), wk =   0.0416667
        k(   24) = (   0.0416667   0.5532940   0.0000000), wk =   0.0416667
        k(   25) = (   0.0833333   0.1443376   0.0000000), wk =   0.0208333
        k(   26) = (   0.0833333   0.1924501   0.0000000), wk =   0.0416667
        k(   27) = (   0.0833333   0.2405626   0.0000000), wk =   0.0416667
        k(   28) = (   0.0833333   0.2886751   0.0000000), wk =   0.0416667
        k(   29) = (   0.0833333   0.3367877   0.0000000), wk =   0.0416667
        k(   30) = (   0.0833333   0.3849002   0.0000000), wk =   0.0416667
        k(   31) = (   0.0833333   0.4330127   0.0000000), wk =   0.0416667
        k(   32) = (   0.0833333   0.4811252   0.0000000), wk =   0.0416667
        k(   33) = (   0.0833333   0.5292377   0.0000000), wk =   0.0416667
        k(   34) = (   0.0833333   0.5773503   0.0000000), wk =   0.0208333
        k(   35) = (   0.1250000   0.2165064   0.0000000), wk =   0.0208333
        k(   36) = (   0.1250000   0.2646189   0.0000000), wk =   0.0416667
        k(   37) = (   0.1250000   0.3127314   0.0000000), wk =   0.0416667
        k(   38) = (   0.1250000   0.3608439   0.0000000), wk =   0.0416667
        k(   39) = (   0.1250000   0.4089564   0.0000000), wk =   0.0416667
        k(   40) = (   0.1250000   0.4570690   0.0000000), wk =   0.0416667
        k(   41) = (   0.1250000   0.5051815   0.0000000), wk =   0.0416667
        k(   42) = (   0.1250000   0.5532940   0.0000000), wk =   0.0416667
        k(   43) = (   0.1666667   0.2886751   0.0000000), wk =   0.0208333
        k(   44) = (   0.1666667   0.3367877   0.0000000), wk =   0.0416667
        k(   45) = (   0.1666667   0.3849002   0.0000000), wk =   0.0416667
        k(   46) = (   0.1666667   0.4330127   0.0000000), wk =   0.0416667
        k(   47) = (   0.1666667   0.4811252   0.0000000), wk =   0.0416667
        k(   48) = (   0.1666667   0.5292377   0.0000000), wk =   0.0416667
        k(   49) = (   0.1666667   0.5773503   0.0000000), wk =   0.0208333
        k(   50) = (   0.2083333   0.3608439   0.0000000), wk =   0.0208333
        k(   51) = (   0.2083333   0.4089564   0.0000000), wk =   0.0416667
        k(   52) = (   0.2083333   0.4570690   0.0000000), wk =   0.0416667
        k(   53) = (   0.2083333   0.5051815   0.0000000), wk =   0.0416667
        k(   54) = (   0.2083333   0.5532940   0.0000000), wk =   0.0416667
        k(   55) = (   0.2500000   0.4330127   0.0000000), wk =   0.0208333
        k(   56) = (   0.2500000   0.4811252   0.0000000), wk =   0.0416667
        k(   57) = (   0.2500000   0.5292377   0.0000000), wk =   0.0416667
        k(   58) = (   0.2500000   0.5773503   0.0000000), wk =   0.0208333
        k(   59) = (   0.2916667   0.5051815   0.0000000), wk =   0.0208333
        k(   60) = (   0.2916667   0.5532940   0.0000000), wk =   0.0416667
        k(   61) = (   0.3333333   0.5773503   0.0000000), wk =   0.0069444

     Dense  grid:    33273 G-vectors     FFT dimensions: (  24,  24, 180)

     Estimated max dynamical RAM per process >      18.64 MB

     Estimated total dynamical RAM >     223.70 MB

     Check: negative core charge=   -0.000014

     Initial potential from superposition of free atoms

     starting charge      35.9993, renormalised to      36.0000

     negative rho (up, down):  2.288E-02 0.000E+00
     Starting wfcs are   26 randomized atomic wfcs
     Checking if some PAW data can be deallocated... 

     total cpu time spent up to now is        1.3 secs

     Self-consistent Calculation

     iteration #  1     ecut=    30.00 Ry     beta= 0.50
     Davidson diagonalization with overlap
     ethr =  1.00E-02,  avg # of iterations =  2.0

     Threshold (ethr) on eigenvalues was too large:
     Diagonalizing with lowered threshold

     Davidson diagonalization with overlap
     ethr =  6.68E-04,  avg # of iterations =  2.0

     negative rho (up, down):  2.517E-02 0.000E+00

     total cpu time spent up to now is        3.0 secs

     total energy              =   -1226.87962112 Ry
     estimated scf accuracy    <       0.24067112 Ry

     iteration #  2     ecut=    30.00 Ry     beta= 0.50
     Davidson diagonalization with overlap
     ethr =  6.69E-04,  avg # of iterations =  7.1

     negative rho (up, down):  3.212E-02 0.000E+00

     total cpu time spent up to now is        4.5 secs

     total energy              =   -1226.63276706 Ry
     estimated scf accuracy    <       4.62274017 Ry

     iteration #  3     ecut=    30.00 Ry     beta= 0.50
     Davidson diagonalization with overlap
     ethr =  6.69E-04,  avg # of iterations =  7.3

     negative rho (up, down):  1.485E-01 0.000E+00

     total cpu time spent up to now is        6.0 secs

     total energy              =   -1227.22872650 Ry
     estimated scf accuracy    <       0.14536466 Ry

     iteration #  4     ecut=    30.00 Ry     beta= 0.50
     Davidson diagonalization with overlap
     ethr =  4.04E-04,  avg # of iterations =  5.5

     negative rho (up, down):  9.265E-02 0.000E+00

     total cpu time spent up to now is        7.4 secs

     total energy              =   -1193.56832177 Ry
     estimated scf accuracy    <     868.46172213 Ry

     iteration #  5     ecut=    30.00 Ry     beta= 0.50
     Davidson diagonalization with overlap
     c_bands:  1 eigenvalues not converged
     c_bands:  1 eigenvalues not converged
     ethr =  4.04E-04,  avg # of iterations = 13.3

     negative rho (up, down):  5.444E-02 0.000E+00

     total cpu time spent up to now is        9.2 secs

     total energy              =   -1225.73526349 Ry
     estimated scf accuracy    <       7.08551252 Ry

     iteration #  6     ecut=    30.00 Ry     beta= 0.50
     Davidson diagonalization with overlap
     ethr =  4.04E-04,  avg # of iterations =  5.3

     negative rho (up, down):  1.285E-01 0.000E+00

     total cpu time spent up to now is       10.5 secs

     total energy              =   -1227.37920247 Ry
     estimated scf accuracy    <       0.37902698 Ry

     iteration #  7     ecut=    30.00 Ry     beta= 0.50
     Davidson diagonalization with overlap
     ethr =  4.04E-04,  avg # of iterations = 10.2

     negative rho (up, down):  3.607E-02 0.000E+00

     total cpu time spent up to now is       12.4 secs

     total energy              =   -1200.54855574 Ry
     estimated scf accuracy    <     545.05062642 Ry

     iteration #  8     ecut=    30.00 Ry     beta= 0.50
     Davidson diagonalization with overlap
     c_bands:  1 eigenvalues not converged
     ethr =  4.04E-04,  avg # of iterations = 12.8

     negative rho (up, down):  3.870E-02 0.000E+00

     total cpu time spent up to now is       14.4 secs

     total energy              =   -1226.99816754 Ry
     estimated scf accuracy    <       0.12073539 Ry

     iteration #  9     ecut=    30.00 Ry     beta= 0.50
     Davidson diagonalization with overlap
     ethr =  3.35E-04,  avg # of iterations =  1.0

     negative rho (up, down):  4.100E-02 0.000E+00

     total cpu time spent up to now is       15.2 secs

     total energy              =   -1227.01013552 Ry
     estimated scf accuracy    <       0.15092528 Ry

     iteration # 10     ecut=    30.00 Ry     beta= 0.50
     Davidson diagonalization with overlap
     ethr =  3.35E-04,  avg # of iterations =  2.0

     negative rho (up, down):  4.086E-02 0.000E+00

     total cpu time spent up to now is       16.1 secs

     total energy              =   -1227.01830854 Ry
     estimated scf accuracy    <       0.19370320 Ry

     iteration # 11     ecut=    30.00 Ry     beta= 0.50
     Davidson diagonalization with overlap
     ethr =  3.35E-04,  avg # of iterations =  1.0

     negative rho (up, down):  4.163E-02 0.000E+00

     total cpu time spent up to now is       16.8 secs

     total energy              =   -1227.02561880 Ry
     estimated scf accuracy    <       0.19299690 Ry

     iteration # 12     ecut=    30.00 Ry     beta= 0.50
     Davidson diagonalization with overlap
     ethr =  3.35E-04,  avg # of iterations =  1.2

     negative rho (up, down):  4.017E-02 0.000E+00

     total cpu time spent up to now is       17.6 secs

     total energy              =   -1227.02658513 Ry
     estimated scf accuracy    <       0.18841007 Ry

     iteration # 13     ecut=    30.00 Ry     beta= 0.50
     Davidson diagonalization with overlap
     ethr =  3.35E-04,  avg # of iterations =  2.0

     negative rho (up, down):  6.901E-02 0.000E+00

     total cpu time spent up to now is       18.5 secs

     total energy              =   -1227.06974140 Ry
     estimated scf accuracy    <       0.10546104 Ry

     iteration # 14     ecut=    30.00 Ry     beta= 0.50
     Davidson diagonalization with overlap
     ethr =  2.93E-04,  avg # of iterations =  6.5

     negative rho (up, down):  3.807E-02 0.000E+00

     total cpu time spent up to now is       19.9 secs

     total energy              =   -1226.08944338 Ry
     estimated scf accuracy    <       9.55259468 Ry

     iteration # 15     ecut=    30.00 Ry     beta= 0.50
     Davidson diagonalization with overlap
     ethr =  2.93E-04,  avg # of iterations =  6.0

     negative rho (up, down):  3.498E-02 0.000E+00

     total cpu time spent up to now is       21.4 secs

     total energy              =   -1227.00886074 Ry
     estimated scf accuracy    <       0.05341872 Ry

     iteration # 16     ecut=    30.00 Ry     beta= 0.50
     Davidson diagonalization with overlap
     ethr =  1.48E-04,  avg # of iterations =  1.9

     negative rho (up, down):  3.135E-02 0.000E+00

     total cpu time spent up to now is       22.2 secs

     total energy              =   -1226.97328746 Ry
     estimated scf accuracy    <       0.04154460 Ry

     iteration # 17     ecut=    30.00 Ry     beta= 0.50
     Davidson diagonalization with overlap
     ethr =  1.15E-04,  avg # of iterations =  3.2

     negative rho (up, down):  3.025E-02 0.000E+00

     total cpu time spent up to now is       23.3 secs

     total energy              =   -1226.98978039 Ry
     estimated scf accuracy    <       0.05883676 Ry

     iteration # 18     ecut=    30.00 Ry     beta= 0.50
     Davidson diagonalization with overlap
     ethr =  1.15E-04,  avg # of iterations =  1.0

     negative rho (up, down):  2.968E-02 0.000E+00

     total cpu time spent up to now is       24.0 secs

     total energy              =   -1226.99042079 Ry
     estimated scf accuracy    <       0.04446144 Ry

     iteration # 19     ecut=    30.00 Ry     beta= 0.50
     Davidson diagonalization with overlap
     ethr =  1.15E-04,  avg # of iterations =  1.0

     negative rho (up, down):  2.773E-02 0.000E+00

     total cpu time spent up to now is       24.8 secs

     total energy              =   -1226.98540833 Ry
     estimated scf accuracy    <       0.03183043 Ry

     iteration # 20     ecut=    30.00 Ry     beta= 0.50
     Davidson diagonalization with overlap
     ethr =  8.84E-05,  avg # of iterations =  1.8

     negative rho (up, down):  2.925E-02 0.000E+00

     total cpu time spent up to now is       25.7 secs

     total energy              =   -1226.98255232 Ry
     estimated scf accuracy    <       0.02646298 Ry

     iteration # 21     ecut=    30.00 Ry     beta= 0.50
     Davidson diagonalization with overlap
     ethr =  7.35E-05,  avg # of iterations =  2.2

     negative rho (up, down):  3.109E-02 0.000E+00

     total cpu time spent up to now is       26.6 secs

     total energy              =   -1226.98669802 Ry
     estimated scf accuracy    <       0.02096979 Ry

     iteration # 22     ecut=    30.00 Ry     beta= 0.50
     Davidson diagonalization with overlap
     ethr =  5.82E-05,  avg # of iterations =  2.4

     negative rho (up, down):  3.614E-02 0.000E+00

     total cpu time spent up to now is       27.6 secs

     total energy              =   -1227.00900020 Ry
     estimated scf accuracy    <       0.05131581 Ry

     iteration # 23     ecut=    30.00 Ry     beta= 0.50
     Davidson diagonalization with overlap
     ethr =  5.82E-05,  avg # of iterations =  4.9

     negative rho (up, down):  2.548E-02 0.000E+00

     total cpu time spent up to now is       28.7 secs

     total energy              =   -1226.92423272 Ry
     estimated scf accuracy    <       0.13812355 Ry

     iteration # 24     ecut=    30.00 Ry     beta= 0.50
     Davidson diagonalization with overlap
     ethr =  5.82E-05,  avg # of iterations =  4.0

     negative rho (up, down):  2.126E-02 0.000E+00

     total cpu time spent up to now is       29.9 secs

     total energy              =   -1226.95860991 Ry
     estimated scf accuracy    <       0.05725161 Ry

     iteration # 25     ecut=    30.00 Ry     beta= 0.50
     Davidson diagonalization with overlap
     ethr =  5.82E-05,  avg # of iterations =  2.3

     negative rho (up, down):  2.327E-02 0.000E+00

     total cpu time spent up to now is       30.9 secs

     total energy              =   -1226.96526269 Ry
     estimated scf accuracy    <       0.01090878 Ry

     iteration # 26     ecut=    30.00 Ry     beta= 0.50
     Davidson diagonalization with overlap
     ethr =  3.03E-05,  avg # of iterations =  4.2

     negative rho (up, down):  2.177E-02 0.000E+00

     total cpu time spent up to now is       32.0 secs

     total energy              =   -1226.96520210 Ry
     estimated scf accuracy    <       0.00680596 Ry

     iteration # 27     ecut=    30.00 Ry     beta= 0.50
     Davidson diagonalization with overlap
     ethr =  1.89E-05,  avg # of iterations =  2.0

     negative rho (up, down):  2.093E-02 0.000E+00

     total cpu time spent up to now is       32.8 secs

     total energy              =   -1226.96455788 Ry
     estimated scf accuracy    <       0.00297859 Ry

     iteration # 28     ecut=    30.00 Ry     beta= 0.50
     Davidson diagonalization with overlap
     ethr =  8.27E-06,  avg # of iterations =  2.1

     negative rho (up, down):  2.138E-02 0.000E+00

     total cpu time spent up to now is       33.8 secs

     total energy              =   -1226.96534803 Ry
     estimated scf accuracy    <       0.00031900 Ry

     iteration # 29     ecut=    30.00 Ry     beta= 0.50
     Davidson diagonalization with overlap
     ethr =  8.86E-07,  avg # of iterations =  4.4

     negative rho (up, down):  2.083E-02 0.000E+00

     total cpu time spent up to now is       34.9 secs

     total energy              =   -1226.96467920 Ry
     estimated scf accuracy    <       0.00093498 Ry

     iteration # 30     ecut=    30.00 Ry     beta= 0.50
     Davidson diagonalization with overlap
     ethr =  8.86E-07,  avg # of iterations =  4.3

     negative rho (up, down):  2.088E-02 0.000E+00

     total cpu time spent up to now is       36.0 secs

     total energy              =   -1226.96517614 Ry
     estimated scf accuracy    <       0.00026851 Ry

     iteration # 31     ecut=    30.00 Ry     beta= 0.50
     Davidson diagonalization with overlap
     ethr =  7.46E-07,  avg # of iterations =  3.8

     negative rho (up, down):  2.074E-02 0.000E+00

     total cpu time spent up to now is       37.1 secs

     total energy              =   -1226.96503619 Ry
     estimated scf accuracy    <       0.00148737 Ry

     iteration # 32     ecut=    30.00 Ry     beta= 0.50
     Davidson diagonalization with overlap
     ethr =  7.46E-07,  avg # of iterations =  2.5

     negative rho (up, down):  2.072E-02 0.000E+00

     total cpu time spent up to now is       38.1 secs

     total energy              =   -1226.96493373 Ry
     estimated scf accuracy    <       0.00098932 Ry

     iteration # 33     ecut=    30.00 Ry     beta= 0.50
     Davidson diagonalization with overlap
     ethr =  7.46E-07,  avg # of iterations =  4.8

     negative rho (up, down):  2.074E-02 0.000E+00

     total cpu time spent up to now is       39.3 secs

     total energy              =   -1226.96501698 Ry
     estimated scf accuracy    <       0.00015233 Ry

     iteration # 34     ecut=    30.00 Ry     beta= 0.50
     Davidson diagonalization with overlap
     ethr =  4.23E-07,  avg # of iterations =  2.8

     negative rho (up, down):  2.074E-02 0.000E+00

     total cpu time spent up to now is       40.2 secs

     total energy              =   -1226.96502569 Ry
     estimated scf accuracy    <       0.00006122 Ry

     iteration # 35     ecut=    30.00 Ry     beta= 0.50
     Davidson diagonalization with overlap
     ethr =  1.70E-07,  avg # of iterations =  4.8

     negative rho (up, down):  2.079E-02 0.000E+00

     total cpu time spent up to now is       41.3 secs

     total energy              =   -1226.96500024 Ry
     estimated scf accuracy    <       0.00017126 Ry

     iteration # 36     ecut=    30.00 Ry     beta= 0.50
     Davidson diagonalization with overlap
     ethr =  1.70E-07,  avg # of iterations =  4.2

     negative rho (up, down):  2.077E-02 0.000E+00

     total cpu time spent up to now is       42.4 secs

     total energy              =   -1226.96501577 Ry
     estimated scf accuracy    <       0.00002819 Ry

     iteration # 37     ecut=    30.00 Ry     beta= 0.50
     Davidson diagonalization with overlap
     ethr =  7.83E-08,  avg # of iterations =  3.0

     negative rho (up, down):  2.077E-02 0.000E+00

     total cpu time spent up to now is       43.4 secs

     total energy              =   -1226.96501869 Ry
     estimated scf accuracy    <       0.00000197 Ry

     iteration # 38     ecut=    30.00 Ry     beta= 0.50
     Davidson diagonalization with overlap
     ethr =  5.47E-09,  avg # of iterations =  5.0

     negative rho (up, down):  2.077E-02 0.000E+00

     total cpu time spent up to now is       44.6 secs

     total energy              =   -1226.96501965 Ry
     estimated scf accuracy    <       0.00000260 Ry

     iteration # 39     ecut=    30.00 Ry     beta= 0.50
     Davidson diagonalization with overlap
     ethr =  5.47E-09,  avg # of iterations =  2.0

     negative rho (up, down):  2.077E-02 0.000E+00

     total cpu time spent up to now is       45.6 secs

     total energy              =   -1226.96501948 Ry
     estimated scf accuracy    <       0.00000145 Ry

     iteration # 40     ecut=    30.00 Ry     beta= 0.50
     Davidson diagonalization with overlap
     ethr =  4.03E-09,  avg # of iterations =  3.8

     negative rho (up, down):  2.077E-02 0.000E+00

     total cpu time spent up to now is       46.6 secs

     total energy              =   -1226.96501972 Ry
     estimated scf accuracy    <       0.00000006 Ry

     iteration # 41     ecut=    30.00 Ry     beta= 0.50
     Davidson diagonalization with overlap
     ethr =  1.65E-10,  avg # of iterations =  4.9

     negative rho (up, down):  2.078E-02 0.000E+00

     total cpu time spent up to now is       47.8 secs

     total energy              =   -1226.96501972 Ry
     estimated scf accuracy    <       0.00000007 Ry

     iteration # 42     ecut=    30.00 Ry     beta= 0.50
     Davidson diagonalization with overlap
     ethr =  1.65E-10,  avg # of iterations =  3.1

     negative rho (up, down):  2.078E-02 0.000E+00

     total cpu time spent up to now is       48.7 secs

     End of self-consistent calculation

          k = 0.0000 0.0000 0.0000 (  4127 PWs)   bands (ev):

   -75.4201 -49.9986 -49.9986 -49.9689 -49.7364 -49.7364 -39.5296 -39.2605
   -39.2605 -15.1390 -13.9133  -6.9592  -3.8184  -2.3052  -1.9600  -1.9600
    -0.8933  -0.8933

          k = 0.0000 0.0481 0.0000 (  4141 PWs)   bands (ev):

   -75.4199 -50.0220 -49.9630 -49.9449 -49.8491 -49.8348 -39.5279 -39.2670
   -39.2622 -15.1144 -13.8940  -6.9200  -3.8240  -2.2893  -2.0389  -1.9317
    -0.9560  -0.9391

          k = 0.0000 0.0962 0.0000 (  4167 PWs)   bands (ev):

   -75.4193 -50.0849 -50.0090 -49.9807 -49.9340 -49.9305 -39.5261 -39.2820
   -39.2664 -15.0415 -13.8369  -6.8045  -3.8419  -2.2754  -2.2357  -1.8492
    -1.1502  -1.0663

          k = 0.0000 0.1443 0.0000 (  4163 PWs)   bands (ev):

   -75.4182 -50.1020 -49.9946 -49.9797 -49.9236 -49.9207 -39.5222 -39.3034
   -39.2723 -14.9223 -13.7433  -6.6182  -3.8744  -2.6198  -2.1817  -1.7201
    -1.4792  -1.2509

          k = 0.0000 0.1925 0.0000 (  4183 PWs)   bands (ev):

   -75.4168 -50.1190 -50.0625 -50.0531 -50.0057 -49.9479 -39.5182 -39.3325
   -39.2801 -14.7605 -13.6164  -6.3721  -3.9288  -3.0625  -2.1343  -1.9114
    -1.5595  -1.4659

          k = 0.0000 0.2406 0.0000 (  4161 PWs)   bands (ev):

   -75.4152 -50.0553 -50.0340 -49.9988 -49.9497 -49.9301 -39.5129 -39.3638
   -39.2878 -14.5615 -13.4602  -6.0841  -4.0259  -3.5560  -2.4154  -2.1042
    -1.6933  -1.3853

          k = 0.0000 0.2887 0.0000 (  4143 PWs)   bands (ev):

   -75.4134 -50.0914 -49.9451 -49.9331 -49.9326 -49.9042 -39.5073 -39.3976
   -39.2964 -14.3331 -13.2810  -5.7858  -4.2626  -3.9916  -2.8644  -2.1565
    -1.9120  -1.2310

          k = 0.0000 0.3368 0.0000 (  4163 PWs)   bands (ev):

   -75.4117 -50.1359 -50.0370 -49.9977 -49.9704 -49.9519 -39.5030 -39.4331
   -39.3056 -14.0863 -13.0873  -5.5467  -4.7012  -4.2714  -3.2047  -2.2364
    -2.1123  -1.1209

          k = 0.0000 0.3849 0.0000 (  4155 PWs)   bands (ev):

   -75.4101 -50.1206 -50.0037 -49.9838 -49.9684 -49.9607 -39.4977 -39.4650
   -39.3135 -13.8355 -12.8904  -5.5841  -4.9922  -4.5228  -3.4076  -2.2869
    -2.2854  -1.0646

          k = 0.0000 0.4330 0.0000 (  4157 PWs)   bands (ev):

   -75.4087 -50.1624 -50.0217 -49.9927 -49.9688 -49.9394 -39.4940 -39.4916
   -39.3208 -13.6004 -12.7052  -5.9433  -5.1475  -4.6160  -3.5149  -2.4255
    -2.2693  -1.0505

          k = 0.0000 0.4811 0.0000 (  4169 PWs)   bands (ev):

   -75.4076 -50.1854 -50.0879 -50.0301 -49.9792 -49.9597 -39.5140 -39.4897
   -39.3267 -13.4047 -12.5501  -6.3004  -5.3673  -4.5783  -3.5710  -2.5282
    -2.1921  -1.0579

          k = 0.0000 0.5292 0.0000 (  4156 PWs)   bands (ev):

   -75.4069 -50.1846 -50.0524 -49.9880 -49.9429 -49.9251 -39.5268 -39.4869
   -39.3296 -13.2735 -12.4453  -6.5426  -5.5341  -4.5441  -3.5983  -2.5909
    -2.1058  -1.0693

          k = 0.0000-0.5774 0.0000 (  4180 PWs)   bands (ev):

   -75.4067 -50.2233 -50.1049 -50.0674 -50.0078 -49.9741 -39.5323 -39.4870
   -39.3312 -13.2272 -12.4080  -6.6280  -5.5942  -4.5335  -3.6065  -2.6120
    -2.0690  -1.0742

          k = 0.0417 0.0722 0.0000 (  4159 PWs)   bands (ev):

   -75.4195 -50.0773 -49.9906 -49.9834 -49.9748 -49.8125 -39.5269 -39.2771
   -39.2648 -15.0657 -13.8558  -6.8426  -3.8357  -2.2612  -2.1893  -1.8769
    -1.0900  -1.0201

          k = 0.0417 0.1203 0.0000 (  4166 PWs)   bands (ev):

   -75.4186 -50.0964 -50.0526 -49.9622 -49.9559 -49.8778 -39.5237 -39.2951
   -39.2701 -14.9696 -13.7804  -6.6915  -3.8602  -2.4809  -2.2031  -1.7737
    -1.3613  -1.1672

          k = 0.0417 0.1684 0.0000 (  4168 PWs)   bands (ev):

   -75.4174 -50.0974 -50.0581 -49.9809 -49.9566 -49.9053 -39.5199 -39.3197
   -39.2768 -14.8291 -13.6702  -6.4746  -3.9011  -2.8738  -2.1460  -1.7527
    -1.6334  -1.3616

          k = 0.0417 0.2165 0.0000 (  4165 PWs)   bands (ev):

   -75.4159 -50.1047 -50.0419 -49.9785 -49.9417 -49.9309 -39.5152 -39.3494
   -39.2849 -14.6486 -13.5285  -6.2055  -3.9689  -3.3394  -2.2381  -2.0973
    -1.5820  -1.4730

          k = 0.0417 0.2646 0.0000 (  4153 PWs)   bands (ev):

   -75.4142 -50.1096 -49.9775 -49.9720 -49.9623 -49.8801 -39.5098 -39.3819
   -39.2940 -14.4346 -13.3606  -5.9073  -4.1089  -3.8175  -2.7058  -2.1323
    -1.8061  -1.3181

          k = 0.0417 0.3127 0.0000 (  4148 PWs)   bands (ev):

   -75.4124 -50.0927 -49.9770 -49.9608 -49.9570 -49.9066 -39.5047 -39.4162
   -39.3027 -14.1964 -13.1737  -5.6239  -4.4779  -4.1397  -3.1049  -2.2136
    -2.0206  -1.1949

          k = 0.0417 0.3608 0.0000 (  4159 PWs)   bands (ev):

   -75.4108 -50.1212 -50.0372 -49.9913 -49.9737 -49.9462 -39.5000 -39.4499
   -39.3117 -13.9467 -12.9776  -5.4820  -4.8838  -4.4002  -3.3644  -2.3014
    -2.2096  -1.1256

          k = 0.0417 0.4090 0.0000 (  4159 PWs)   bands (ev):

   -75.4093 -50.1404 -50.0125 -49.9882 -49.9835 -49.9751 -39.4951 -39.4792
   -39.3198 -13.7024 -12.7854  -5.7289  -5.0424  -4.5929  -3.4991  -2.4043
    -2.3021  -1.1065

          k = 0.0417 0.4571 0.0000 (  4167 PWs)   bands (ev):

   -75.4080 -50.1374 -50.0591 -50.0315 -49.9996 -49.9847 -39.5037 -39.4914
   -39.3262 -13.4851 -12.6136  -6.1116  -5.2416  -4.5910  -3.5638  -2.5307
    -2.2663  -1.1153

          k = 0.0417 0.5052 0.0000 (  4168 PWs)   bands (ev):

   -75.4071 -50.1712 -50.0757 -50.0330 -49.9824 -49.9680 -39.5203 -39.4884
   -39.3312 -13.3198 -12.4819  -6.4167  -5.4467  -4.5448  -3.5935  -2.6227
    -2.1862  -1.1305

          k = 0.0417 0.5533 0.0000 (  4168 PWs)   bands (ev):

   -75.4067 -50.1681 -50.0809 -50.0209 -50.0042 -49.9613 -39.5293 -39.4868
   -39.3332 -13.2298 -12.4097  -6.5826  -5.5636  -4.5216  -3.6047  -2.6704
    -2.1245  -1.1398

          k = 0.0833 0.1443 0.0000 (  4161 PWs)   bands (ev):

   -75.4176 -50.1009 -50.0617 -49.9394 -49.9345 -49.8704 -39.5201 -39.3152
   -39.2760 -14.8522 -13.6883  -6.5092  -3.8912  -2.8056  -2.1514  -1.7089
    -1.6635  -1.3135

          k = 0.0833 0.1925 0.0000 (  4168 PWs)   bands (ev):

   -75.4162 -50.1208 -50.0646 -49.9868 -49.9610 -49.8890 -39.5165 -39.3414
   -39.2840 -14.6928 -13.5632  -6.2672  -3.9379  -3.2152  -2.1611  -2.1007
    -1.5368  -1.5004

          k = 0.0833 0.2406 0.0000 (  4156 PWs)   bands (ev):

   -75.4146 -50.1142 -50.0029 -49.9987 -49.9715 -49.8386 -39.5117 -39.3706
   -39.2932 -14.4969 -13.4094  -5.9821  -4.0180  -3.6723  -2.6307  -2.1237
    -1.7142  -1.4063

          k = 0.0833 0.2887 0.0000 (  4146 PWs)   bands (ev):

   -75.4129 -50.0711 -49.9832 -49.9746 -49.9600 -49.8627 -39.5063 -39.4028
   -39.3026 -14.2725 -13.2331  -5.6831  -4.2694  -4.0321  -3.0743  -2.2078
    -1.9361  -1.2939

          k = 0.0833 0.3368 0.0000 (  4148 PWs)   bands (ev):

   -75.4113 -50.0867 -50.0150 -49.9822 -49.9454 -49.8897 -39.5013 -39.4350
   -39.3124 -14.0301 -13.0427  -5.4377  -4.7139  -4.2572  -3.3932  -2.3293
    -2.1490  -1.2297

          k = 0.0833 0.3849 0.0000 (  4151 PWs)   bands (ev):

   -75.4097 -50.0962 -50.0259 -49.9851 -49.9761 -49.9079 -39.4967 -39.4646
   -39.3218 -13.7846 -12.8494  -5.4955  -4.9516  -4.5073  -3.5514  -2.4502
    -2.3205  -1.2218

          k = 0.0833 0.4330 0.0000 (  4155 PWs)   bands (ev):

   -75.4084 -50.0980 -50.0373 -50.0229 -49.9599 -49.9475 -39.4929 -39.4898
   -39.3299 -13.5549 -12.6680  -5.8670  -5.0814  -4.5879  -3.6077  -2.5908
    -2.3828  -1.2419

          k = 0.0833 0.4811 0.0000 (  4155 PWs)   bands (ev):

   -75.4073 -50.1223 -50.0258 -49.9823 -49.9780 -49.9711 -39.5092 -39.4891
   -39.3364 -13.3642 -12.5164  -6.2162  -5.3063  -4.5315  -3.6177  -2.7268
    -2.3560  -1.2605

          k = 0.0833 0.5292 0.0000 (  4174 PWs)   bands (ev):

   -75.4067 -50.1283 -50.0875 -50.0476 -50.0454 -49.9974 -39.5221 -39.4875
   -39.3405 -13.2367 -12.4141  -6.4507  -5.4741  -4.4903  -3.6108  -2.8215
    -2.3076  -1.2665

          k = 0.0833 0.5774 0.0000 (  4178 PWs)   bands (ev):

   -75.4065 -50.1303 -50.0893 -50.0509 -50.0451 -50.0356 -39.5261 -39.4870
   -39.3421 -13.1917 -12.3778  -6.5331  -5.5340  -4.4779  -3.6058  -2.8556
    -2.2857  -1.2662

          k = 0.1250 0.2165 0.0000 (  4149 PWs)   bands (ev):

   -75.4148 -50.1371 -49.9989 -49.9760 -49.9010 -49.8205 -39.5117 -39.3662
   -39.2933 -14.5179 -13.4258  -6.0073  -3.9870  -3.6158  -2.6112  -2.1218
    -1.6761  -1.4432

          k = 0.1250 0.2646 0.0000 (  4161 PWs)   bands (ev):

   -75.4132 -50.1308 -50.0162 -49.9990 -49.9886 -49.8774 -39.5075 -39.3950
   -39.3044 -14.3112 -13.2633  -5.7142  -4.1290  -3.9799  -3.0805  -2.2087
    -1.8809  -1.3597

          k = 0.1250 0.3127 0.0000 (  4145 PWs)   bands (ev):

   -75.4116 -50.0753 -49.9959 -49.9751 -49.9518 -49.8705 -39.5024 -39.4237
   -39.3150 -14.0818 -13.0828  -5.4245  -4.5507  -4.1286  -3.4756  -2.3596
    -2.1006  -1.3116

          k = 0.1250 0.3608 0.0000 (  4143 PWs)   bands (ev):

   -75.4100 -50.0691 -50.0061 -49.9723 -49.9604 -49.8764 -39.4976 -39.4515
   -39.3260 -13.8421 -12.8940  -5.2866  -4.8892  -4.3619  -3.6847  -2.5278
    -2.3156  -1.3186

          k = 0.1250 0.4090 0.0000 (  4142 PWs)   bands (ev):

   -75.4086 -50.0670 -50.0014 -49.9725 -49.9663 -49.8967 -39.4935 -39.4761
   -39.3361 -13.6088 -12.7095  -5.5933  -4.9183  -4.5668  -3.7336  -2.6859
    -2.4920  -1.3496

          k = 0.1250 0.4571 0.0000 (  4148 PWs)   bands (ev):

   -75.4075 -50.0736 -50.0114 -49.9910 -49.9826 -49.9360 -39.4965 -39.4896
   -39.3447 -13.4024 -12.5454  -5.9625  -5.1229  -4.5206  -3.7129  -2.8477
    -2.5844  -1.3646

          k = 0.1250 0.5052 0.0000 (  4156 PWs)   bands (ev):

   -75.4067 -50.0641 -50.0372 -50.0103 -49.9949 -49.9890 -39.5105 -39.4874
   -39.3509 -13.2462 -12.4201  -6.2455  -5.3326  -4.4519  -3.6636  -3.0000
    -2.6070  -1.3530

          k = 0.1250 0.5533 0.0000 (  4156 PWs)   bands (ev):

   -75.4062 -50.0447 -50.0434 -50.0269 -49.9976 -49.9859 -39.5182 -39.4860
   -39.3535 -13.1614 -12.3517  -6.3982  -5.4486  -4.4217  -3.6182  -3.0996
    -2.6062  -1.3345

          k = 0.1667 0.2887 0.0000 (  4149 PWs)   bands (ev):

   -75.4117 -50.0614 -50.0229 -49.9825 -49.9401 -49.8996 -39.5026 -39.4196
   -39.3165 -14.0993 -13.0964  -5.4219  -4.4816  -4.0693  -3.5276  -2.3742
    -2.0809  -1.3401

          k = 0.1667 0.3368 0.0000 (  4146 PWs)   bands (ev):

   -75.4102 -50.0450 -50.0021 -49.9899 -49.9451 -49.9233 -39.4980 -39.4437
   -39.3297 -13.8717 -12.9168  -5.1611  -4.8540  -4.1947  -3.8557  -2.5895
    -2.3034  -1.3639

          k = 0.1667 0.3849 0.0000 (  4145 PWs)   bands (ev):

   -75.4088 -50.0422 -50.0123 -49.9936 -49.9907 -49.8858 -39.4941 -39.4654
   -39.3426 -13.6428 -12.7355  -5.3394  -4.8374  -4.4815  -3.9240  -2.8076
    -2.5316  -1.4036

          k = 0.1667 0.4330 0.0000 (  4136 PWs)   bands (ev):

   -75.4076 -50.0423 -50.0006 -49.9709 -49.9457 -49.8868 -39.4901 -39.4834
   -39.3539 -13.4304 -12.5664  -5.6965  -4.9162  -4.5338  -3.8872  -2.9971
    -2.7420  -1.4139

          k = 0.1667 0.4811 0.0000 (  4137 PWs)   bands (ev):

   -75.4066 -50.0343 -50.0153 -49.9809 -49.9399 -49.9012 -39.4977 -39.4870
   -39.3627 -13.2556 -12.4261  -5.9954  -5.1555  -4.4270  -3.8088  -3.1610
    -2.9017  -1.3824

          k = 0.1667 0.5292 0.0000 (  4142 PWs)   bands (ev):

   -75.4060 -50.0383 -50.0276 -49.9864 -49.9628 -49.9219 -39.5064 -39.4855
   -39.3684 -13.1395 -12.3321  -6.1934  -5.3191  -4.3698  -3.7066  -3.3147
    -2.9870  -1.3348

          k = 0.1667 0.5774 0.0000 (  4142 PWs)   bands (ev):

   -75.4058 -50.0278 -50.0139 -50.0129 -49.9666 -49.9198 -39.5095 -39.4847
   -39.3704 -13.0987 -12.2989  -6.2628  -5.3761  -4.3542  -3.6371  -3.4032
    -3.0112  -1.3123

          k = 0.2083 0.3608 0.0000 (  4151 PWs)   bands (ev):

   -75.4089 -50.0347 -50.0194 -49.9885 -49.9758 -49.9733 -39.4942 -39.4612
   -39.3459 -13.6544 -12.7444  -5.2150  -4.8475  -4.3813  -4.0558  -2.8645
    -2.5363  -1.4173

          k = 0.2083 0.4090 0.0000 (  4143 PWs)   bands (ev):

   -75.4076 -50.0245 -50.0215 -49.9805 -49.9535 -49.9399 -39.4904 -39.4755
   -39.3609 -13.4452 -12.5774  -5.5019  -4.7364  -4.5766  -4.0587  -3.1352
    -2.7811  -1.4275

          k = 0.2083 0.4571 0.0000 (  4132 PWs)   bands (ev):

   -75.4066 -50.0266 -50.0052 -49.9858 -49.9227 -49.8676 -39.4876 -39.4856
   -39.3740 -13.2624 -12.4303  -5.7596  -4.9828  -4.4325  -4.0021  -3.3556
    -3.0184  -1.3811

          k = 0.2083 0.5052 0.0000 (  4133 PWs)   bands (ev):

   -75.4059 -50.0399 -49.9959 -49.9862 -49.9127 -49.8940 -39.4931 -39.4851
   -39.3841 -13.1256 -12.3193  -5.9550  -5.1753  -4.3431  -3.9087  -3.5036
    -3.2267  -1.3039

          k = 0.2083 0.5533 0.0000 (  4138 PWs)   bands (ev):

   -75.4056 -50.0233 -50.0133 -49.9954 -49.9655 -49.8966 -39.4971 -39.4837
   -39.3896 -13.0520 -12.2592  -6.0612  -5.2762  -4.3130  -3.8044  -3.5928
    -3.3645  -1.2452

          k = 0.2500 0.4330 0.0000 (  4131 PWs)   bands (ev):

   -75.4066 -50.0063 -49.9847 -49.9820 -49.9207 -49.8980 -39.4870 -39.4810
   -39.3791 -13.2649 -12.4319  -5.6523  -4.9028  -4.4432  -4.1029  -3.4493
    -3.0353  -1.3767

          k = 0.2500 0.4811 0.0000 (  4130 PWs)   bands (ev):

   -75.4058 -50.0252 -49.9961 -49.9773 -49.9241 -49.8666 -39.4851 -39.4833
   -39.3950 -13.1189 -12.3131  -5.7672  -5.0804  -4.3318  -4.0969  -3.6791
    -3.2713  -1.2761

          k = 0.2500 0.5292 0.0000 (  4133 PWs)   bands (ev):

   -75.4054 -50.0079 -50.0030 -49.9930 -49.9418 -49.8827 -39.4841 -39.4829
   -39.4068 -13.0234 -12.2347  -5.8391  -5.1994  -4.3192  -4.0373  -3.7841
    -3.4645  -1.1769

          k = 0.2500 0.5774 0.0000 (  4120 PWs)   bands (ev):

   -75.4052 -49.9828 -49.9627 -49.9609 -49.9358 -49.8338 -39.4835 -39.4820
   -39.4106 -12.9901 -12.2072  -5.8637  -5.2406  -4.3358  -3.9922  -3.8021
    -3.5538  -1.1353

          k = 0.2917 0.5052 0.0000 (  4131 PWs)   bands (ev):

   -75.4053 -50.0494 -50.0272 -50.0083 -49.8886 -49.8277 -39.4832 -39.4769
   -39.4148 -13.0137 -12.2263  -5.7222  -5.1873  -4.3202  -4.1559  -3.8650
    -3.4712  -1.1477

          k = 0.2917 0.5533 0.0000 (  4127 PWs)   bands (ev):

   -75.4050 -49.9997 -49.9814 -49.9645 -49.9485 -49.8667 -39.4815 -39.4699
   -39.4292 -12.9580 -12.1801  -5.6584  -5.2758  -4.4199  -4.0963  -3.9472
    -3.5859  -1.0586

          k = 0.3333 0.5774 0.0000 (  4143 PWs)   bands (ev):

   -75.4049 -50.0321 -50.0298 -49.9971 -49.9964 -49.8947 -39.4816 -39.4558
   -39.4473 -12.9355 -12.1613  -5.4656  -5.4268  -4.4851  -4.0908  -4.0135
    -3.6186  -1.0096

     highest occupied level (ev):    -0.8933

!    total energy              =   -1226.96501972 Ry
     total all-electron energy =    -37943.055450 Ry
     estimated scf accuracy    <          7.7E-09 Ry

     The total energy is the sum of the following terms:
     one-electron contribution =   -2745.91179617 Ry
     hartree contribution      =    1370.14231242 Ry
     xc contribution           =     -72.88651046 Ry
     ewald contribution        =    1014.62639046 Ry
     one-center paw contrib.   =    -792.93541598 Ry

     convergence has been achieved in  42 iterations

     Writing all to output data dir ./work/WSSe.save/

     init_run     :      0.86s CPU      0.88s WALL (       1 calls)
     electrons    :     46.74s CPU     47.43s WALL (       1 calls)

     Called by init_run:
     wfcinit      :      0.40s CPU      0.40s WALL (       1 calls)
     potinit      :      0.09s CPU      0.11s WALL (       1 calls)
     hinit0       :      0.33s CPU      0.33s WALL (       1 calls)

     Called by electrons:
     c_bands      :     38.23s CPU     38.75s WALL (      43 calls)
     sum_band     :      5.41s CPU      5.49s WALL (      43 calls)
     v_of_rho     :      0.12s CPU      0.13s WALL (      43 calls)
     newd         :      0.76s CPU      0.77s WALL (      43 calls)
     PAW_pot      :      2.17s CPU      2.27s WALL (      43 calls)
     mix_rho      :      0.07s CPU      0.08s WALL (      43 calls)

     Called by c_bands:
     init_us_2    :      0.54s CPU      0.54s WALL (    5307 calls)
     init_us_2:cp :      0.53s CPU      0.54s WALL (    5307 calls)
     cegterg      :     36.75s CPU     37.25s WALL (    2623 calls)

     Called by *egterg:
     cdiaghg      :      3.38s CPU      3.43s WALL (   13024 calls)
     h_psi        :     23.19s CPU     23.50s WALL (   13146 calls)
     s_psi        :      2.34s CPU      2.37s WALL (   13146 calls)
     g_psi        :      0.10s CPU      0.10s WALL (   10462 calls)

     Called by h_psi:
     h_psi:calbec :      3.07s CPU      3.11s WALL (   13146 calls)
     vloc_psi     :     17.70s CPU     17.93s WALL (   13146 calls)
     add_vuspsi   :      2.33s CPU      2.37s WALL (   13146 calls)

     General routines
     calbec       :      4.07s CPU      4.14s WALL (   15769 calls)
     fft          :      0.27s CPU      0.27s WALL (     474 calls)
     ffts         :      0.01s CPU      0.01s WALL (      43 calls)
     fftw         :     18.87s CPU     19.11s WALL (  315658 calls)

     Parallel routines

     PWSCF        :     48.09s CPU     48.85s WALL


   This run was terminated on:  10: 2:19  30Jan2023            

=------------------------------------------------------------------------------=
   JOB DONE.
=------------------------------------------------------------------------------=
