
     Program PWSCF v.7.1 starts on 30Jan2023 at 10: 2:20 

     This program is part of the open-source Quantum ESPRESSO suite
     for quantum simulation of materials; please cite
         "P. Giannozzi et al., J. Phys.:Condens. Matter 21 395502 (2009);
         "P. Giannozzi et al., J. Phys.:Condens. Matter 29 465901 (2017);
         "P. Giannozzi et al., J. Chem. Phys. 152 154105 (2020);
          URL http://www.quantum-espresso.org", 
     in publications or presentations arising from this work. More details at
     http://www.quantum-espresso.org/quote

     Parallel version (MPI), running on    12 processors

     MPI processes distributed on     1 nodes
     122686 MiB available memory on the printing compute node when the environment starts

     Waiting for input...
     Reading input from standard input

     Current dimensions of program PWSCF are:
     Max number of different atomic species (ntypx) = 10
     Max number of k-points (npk) =  40000
     Max angular momentum in pseudopotentials (lmaxx) =  4
     file W.pbe-spn-kjpaw_psl.1.0.0.UPF: wavefunction(s)  6S 5P 5D renormalized
     file S.pbe-n-kjpaw_psl.1.0.0.UPF: wavefunction(s)  3S 3P renormalized
     file Se.pbe-dn-kjpaw_psl.1.0.0.UPF: wavefunction(s)  4S 4P 3D renormalized
     Message from routine setup:
     using ibrav=0 with symmetry is DISCOURAGED, use correct ibrav instead

     R & G space division:  proc/nbgrp/npool/nimage =      12
     Subspace diagonalization in iterative solution of the eigenvalue problem:
     a serial algorithm will be used


     Parallelization info
     --------------------
     sticks:   dense  smooth     PW     G-vecs:    dense   smooth      PW
     Min          33      33     10                 4247     4247     724
     Max          35      35     11                 4260     4260     757
     Sum         409     409    121                50999    50999    8769

     Using Slab Decomposition



     bravais-lattice index     =            0
     lattice parameter (alat)  =       6.0471  a.u.
     unit-cell volume          =    1496.1226 (a.u.)^3
     number of atoms/cell      =            3
     number of atomic types    =            3
     number of electrons       =        36.00
     number of Kohn-Sham states=           18
     kinetic-energy cutoff     =      40.0000  Ry
     charge density cutoff     =     160.0000  Ry
     scf convergence threshold =      1.0E-08
     mixing beta               =       0.5000
     number of iterations used =            8  plain     mixing
     Exchange-correlation= SLA  PW   PBX  PBC
                           (   1   4   3   4   0   0   0)

     celldm(1)=   6.047124  celldm(2)=   0.000000  celldm(3)=   0.000000
     celldm(4)=   0.000000  celldm(5)=   0.000000  celldm(6)=   0.000000

     crystal axes: (cart. coord. in units of alat)
               a(1) = (   1.000000   0.000000   0.000000 )  
               a(2) = (  -0.500000   0.866025   0.000000 )  
               a(3) = (   0.000000   0.000000   7.812500 )  

     reciprocal axes: (cart. coord. in units 2 pi/alat)
               b(1) = (  1.000000  0.577350 -0.000000 )  
               b(2) = (  0.000000  1.154701  0.000000 )  
               b(3) = (  0.000000 -0.000000  0.128000 )  


     PseudoPot. # 1 for W  read from file:
     /home/mainadmin/research/danu/pseudo/W.pbe-spn-kjpaw_psl.1.0.0.UPF
     MD5 check sum: 03c3df5b60893f488392c7401945500a
     Pseudo is Projector augmented-wave + core cor, Zval = 14.0
     Generated using &quot;atomic&quot; code by A. Dal Corso  v.6.2.2
     Shape of augmentation charge: PSQ
     Using radial grid of 1273 points,  6 beta functions with: 
                l(1) =   0
                l(2) =   0
                l(3) =   1
                l(4) =   1
                l(5) =   2
                l(6) =   2
     Q(r) pseudized with 0 coefficients 


     PseudoPot. # 2 for S  read from file:
     /home/mainadmin/research/danu/pseudo/S.pbe-n-kjpaw_psl.1.0.0.UPF
     MD5 check sum: fb45dfebcf3e72a4e1bd4a866ec2e262
     Pseudo is Projector augmented-wave + core cor, Zval =  6.0
     Generated using &quot;atomic&quot; code by A. Dal Corso  v.6.3
     Shape of augmentation charge: PSQ
     Using radial grid of 1151 points,  6 beta functions with: 
                l(1) =   0
                l(2) =   0
                l(3) =   1
                l(4) =   1
                l(5) =   2
                l(6) =   2
     Q(r) pseudized with 0 coefficients 


     PseudoPot. # 3 for Se read from file:
     /home/mainadmin/research/danu/pseudo/Se.pbe-dn-kjpaw_psl.1.0.0.UPF
     MD5 check sum: ac240dd2bae32a30e0bf3a38df9c8785
     Pseudo is Projector augmented-wave + core cor, Zval = 16.0
     Generated using &quot;atomic&quot; code by A. Dal Corso  v.6.3
     Shape of augmentation charge: PSQ
     Using radial grid of 1211 points,  6 beta functions with: 
                l(1) =   0
                l(2) =   0
                l(3) =   1
                l(4) =   1
                l(5) =   2
                l(6) =   2
     Q(r) pseudized with 0 coefficients 


     atomic species   valence    mass     pseudopotential
        W             14.00   183.84000     W ( 1.00)
        S              6.00    32.06500     S ( 1.00)
        Se            16.00    78.96000     Se( 1.00)

      6 Sym. Ops. (no inversion) found



   Cartesian axes

     site n.     atom                  positions (alat units)
         1           Se  tau(   1) = (   0.5000000   0.2886751   4.5312500  )
         2           W   tau(   2) = (  -0.0000000   0.5773503   3.9062500  )
         3           S   tau(   3) = (   0.5000000   0.2886751  -4.5312500  )

     number of k points=    61
                       cart. coord. in units 2pi/alat
        k(    1) = (   0.0000000   0.0000000   0.0000000), wk =   0.0034722
        k(    2) = (   0.0000000   0.0481125   0.0000000), wk =   0.0208333
        k(    3) = (   0.0000000   0.0962250   0.0000000), wk =   0.0208333
        k(    4) = (   0.0000000   0.1443376   0.0000000), wk =   0.0208333
        k(    5) = (   0.0000000   0.1924501   0.0000000), wk =   0.0208333
        k(    6) = (   0.0000000   0.2405626   0.0000000), wk =   0.0208333
        k(    7) = (   0.0000000   0.2886751   0.0000000), wk =   0.0208333
        k(    8) = (   0.0000000   0.3367877   0.0000000), wk =   0.0208333
        k(    9) = (   0.0000000   0.3849002   0.0000000), wk =   0.0208333
        k(   10) = (   0.0000000   0.4330127   0.0000000), wk =   0.0208333
        k(   11) = (   0.0000000   0.4811252   0.0000000), wk =   0.0208333
        k(   12) = (   0.0000000   0.5292377   0.0000000), wk =   0.0208333
        k(   13) = (   0.0000000  -0.5773503   0.0000000), wk =   0.0104167
        k(   14) = (   0.0416667   0.0721688   0.0000000), wk =   0.0208333
        k(   15) = (   0.0416667   0.1202813   0.0000000), wk =   0.0416667
        k(   16) = (   0.0416667   0.1683938   0.0000000), wk =   0.0416667
        k(   17) = (   0.0416667   0.2165064   0.0000000), wk =   0.0416667
        k(   18) = (   0.0416667   0.2646189   0.0000000), wk =   0.0416667
        k(   19) = (   0.0416667   0.3127314   0.0000000), wk =   0.0416667
        k(   20) = (   0.0416667   0.3608439   0.0000000), wk =   0.0416667
        k(   21) = (   0.0416667   0.4089564   0.0000000), wk =   0.0416667
        k(   22) = (   0.0416667   0.4570690   0.0000000), wk =   0.0416667
        k(   23) = (   0.0416667   0.5051815   0.0000000), wk =   0.0416667
        k(   24) = (   0.0416667   0.5532940   0.0000000), wk =   0.0416667
        k(   25) = (   0.0833333   0.1443376   0.0000000), wk =   0.0208333
        k(   26) = (   0.0833333   0.1924501   0.0000000), wk =   0.0416667
        k(   27) = (   0.0833333   0.2405626   0.0000000), wk =   0.0416667
        k(   28) = (   0.0833333   0.2886751   0.0000000), wk =   0.0416667
        k(   29) = (   0.0833333   0.3367877   0.0000000), wk =   0.0416667
        k(   30) = (   0.0833333   0.3849002   0.0000000), wk =   0.0416667
        k(   31) = (   0.0833333   0.4330127   0.0000000), wk =   0.0416667
        k(   32) = (   0.0833333   0.4811252   0.0000000), wk =   0.0416667
        k(   33) = (   0.0833333   0.5292377   0.0000000), wk =   0.0416667
        k(   34) = (   0.0833333   0.5773503   0.0000000), wk =   0.0208333
        k(   35) = (   0.1250000   0.2165064   0.0000000), wk =   0.0208333
        k(   36) = (   0.1250000   0.2646189   0.0000000), wk =   0.0416667
        k(   37) = (   0.1250000   0.3127314   0.0000000), wk =   0.0416667
        k(   38) = (   0.1250000   0.3608439   0.0000000), wk =   0.0416667
        k(   39) = (   0.1250000   0.4089564   0.0000000), wk =   0.0416667
        k(   40) = (   0.1250000   0.4570690   0.0000000), wk =   0.0416667
        k(   41) = (   0.1250000   0.5051815   0.0000000), wk =   0.0416667
        k(   42) = (   0.1250000   0.5532940   0.0000000), wk =   0.0416667
        k(   43) = (   0.1666667   0.2886751   0.0000000), wk =   0.0208333
        k(   44) = (   0.1666667   0.3367877   0.0000000), wk =   0.0416667
        k(   45) = (   0.1666667   0.3849002   0.0000000), wk =   0.0416667
        k(   46) = (   0.1666667   0.4330127   0.0000000), wk =   0.0416667
        k(   47) = (   0.1666667   0.4811252   0.0000000), wk =   0.0416667
        k(   48) = (   0.1666667   0.5292377   0.0000000), wk =   0.0416667
        k(   49) = (   0.1666667   0.5773503   0.0000000), wk =   0.0208333
        k(   50) = (   0.2083333   0.3608439   0.0000000), wk =   0.0208333
        k(   51) = (   0.2083333   0.4089564   0.0000000), wk =   0.0416667
        k(   52) = (   0.2083333   0.4570690   0.0000000), wk =   0.0416667
        k(   53) = (   0.2083333   0.5051815   0.0000000), wk =   0.0416667
        k(   54) = (   0.2083333   0.5532940   0.0000000), wk =   0.0416667
        k(   55) = (   0.2500000   0.4330127   0.0000000), wk =   0.0208333
        k(   56) = (   0.2500000   0.4811252   0.0000000), wk =   0.0416667
        k(   57) = (   0.2500000   0.5292377   0.0000000), wk =   0.0416667
        k(   58) = (   0.2500000   0.5773503   0.0000000), wk =   0.0208333
        k(   59) = (   0.2916667   0.5051815   0.0000000), wk =   0.0208333
        k(   60) = (   0.2916667   0.5532940   0.0000000), wk =   0.0416667
        k(   61) = (   0.3333333   0.5773503   0.0000000), wk =   0.0069444

     Dense  grid:    50999 G-vectors     FFT dimensions: (  25,  25, 192)

     Estimated max dynamical RAM per process >      27.38 MB

     Estimated total dynamical RAM >     328.58 MB

     Check: negative core charge=   -0.000003

     Initial potential from superposition of free atoms

     starting charge      35.9993, renormalised to      36.0000

     negative rho (up, down):  6.622E-03 0.000E+00
     Starting wfcs are   26 randomized atomic wfcs
     Checking if some PAW data can be deallocated... 

     total cpu time spent up to now is        1.2 secs

     Self-consistent Calculation

     iteration #  1     ecut=    40.00 Ry     beta= 0.50
     Davidson diagonalization with overlap
     ethr =  1.00E-02,  avg # of iterations =  2.0

     Threshold (ethr) on eigenvalues was too large:
     Diagonalizing with lowered threshold

     Davidson diagonalization with overlap
     ethr =  4.62E-04,  avg # of iterations =  2.1

     negative rho (up, down):  7.450E-03 0.000E+00

     total cpu time spent up to now is        3.3 secs

     total energy              =   -1228.21122470 Ry
     estimated scf accuracy    <       0.16968113 Ry

     iteration #  2     ecut=    40.00 Ry     beta= 0.50
     Davidson diagonalization with overlap
     ethr =  4.71E-04,  avg # of iterations =  8.3

     negative rho (up, down):  8.609E-03 0.000E+00

     total cpu time spent up to now is        5.1 secs

     total energy              =   -1227.97661993 Ry
     estimated scf accuracy    <       4.21941328 Ry

     iteration #  3     ecut=    40.00 Ry     beta= 0.50
     Davidson diagonalization with overlap
     ethr =  4.71E-04,  avg # of iterations =  7.5

     negative rho (up, down):  5.015E-02 0.000E+00

     total cpu time spent up to now is        6.9 secs

     total energy              =   -1228.33018867 Ry
     estimated scf accuracy    <       0.05640261 Ry

     iteration #  4     ecut=    40.00 Ry     beta= 0.50
     Davidson diagonalization with overlap
     ethr =  1.57E-04,  avg # of iterations =  7.9

     negative rho (up, down):  1.485E-02 0.000E+00

     total cpu time spent up to now is        9.0 secs

     total energy              =   -1207.23443627 Ry
     estimated scf accuracy    <    1335.15828702 Ry

     iteration #  5     ecut=    40.00 Ry     beta= 0.50
     Davidson diagonalization with overlap
     ethr =  1.57E-04,  avg # of iterations = 12.4

     negative rho (up, down):  5.734E-02 0.000E+00

     total cpu time spent up to now is       11.3 secs

     total energy              =   -1228.42438583 Ry
     estimated scf accuracy    <       0.15339391 Ry

     iteration #  6     ecut=    40.00 Ry     beta= 0.50
     Davidson diagonalization with overlap
     ethr =  1.57E-04,  avg # of iterations =  7.8

     negative rho (up, down):  2.762E-02 0.000E+00

     total cpu time spent up to now is       13.3 secs

     total energy              =   -1223.81106792 Ry
     estimated scf accuracy    <    1851.05862476 Ry

     iteration #  7     ecut=    40.00 Ry     beta= 0.50
     Davidson diagonalization with overlap
     c_bands:  1 eigenvalues not converged
     c_bands:  1 eigenvalues not converged
     ethr =  1.57E-04,  avg # of iterations = 12.4

     negative rho (up, down):  1.217E-02 0.000E+00

     total cpu time spent up to now is       15.6 secs

     total energy              =   -1228.11865158 Ry
     estimated scf accuracy    <       1.57429414 Ry

     iteration #  8     ecut=    40.00 Ry     beta= 0.50
     Davidson diagonalization with overlap
     ethr =  1.57E-04,  avg # of iterations =  5.5

     negative rho (up, down):  1.005E-02 0.000E+00

     total cpu time spent up to now is       17.1 secs

     total energy              =   -1228.28549199 Ry
     estimated scf accuracy    <       0.02786586 Ry

     iteration #  9     ecut=    40.00 Ry     beta= 0.50
     Davidson diagonalization with overlap
     ethr =  7.74E-05,  avg # of iterations =  2.5

     negative rho (up, down):  9.489E-03 0.000E+00

     total cpu time spent up to now is       18.3 secs

     total energy              =   -1228.28596481 Ry
     estimated scf accuracy    <       0.00966691 Ry

     iteration # 10     ecut=    40.00 Ry     beta= 0.50
     Davidson diagonalization with overlap
     ethr =  2.69E-05,  avg # of iterations =  4.1

     negative rho (up, down):  9.711E-03 0.000E+00

     total cpu time spent up to now is       19.6 secs

     total energy              =   -1228.28930879 Ry
     estimated scf accuracy    <       0.00541683 Ry

     iteration # 11     ecut=    40.00 Ry     beta= 0.50
     Davidson diagonalization with overlap
     ethr =  1.50E-05,  avg # of iterations =  2.0

     negative rho (up, down):  9.901E-03 0.000E+00

     total cpu time spent up to now is       20.6 secs

     total energy              =   -1228.29035168 Ry
     estimated scf accuracy    <       0.00604285 Ry

     iteration # 12     ecut=    40.00 Ry     beta= 0.50
     Davidson diagonalization with overlap
     ethr =  1.50E-05,  avg # of iterations =  2.0

     negative rho (up, down):  1.030E-02 0.000E+00

     total cpu time spent up to now is       21.7 secs

     total energy              =   -1228.29194873 Ry
     estimated scf accuracy    <       0.00663004 Ry

     iteration # 13     ecut=    40.00 Ry     beta= 0.50
     Davidson diagonalization with overlap
     ethr =  1.50E-05,  avg # of iterations =  2.0

     negative rho (up, down):  1.579E-02 0.000E+00

     total cpu time spent up to now is       22.7 secs

     total energy              =   -1228.30366375 Ry
     estimated scf accuracy    <       0.00857994 Ry

     iteration # 14     ecut=    40.00 Ry     beta= 0.50
     Davidson diagonalization with overlap
     ethr =  1.50E-05,  avg # of iterations =  6.8

     negative rho (up, down):  8.350E-03 0.000E+00

     total cpu time spent up to now is       24.4 secs

     total energy              =   -1228.26190053 Ry
     estimated scf accuracy    <       0.06881128 Ry

     iteration # 15     ecut=    40.00 Ry     beta= 0.50
     Davidson diagonalization with overlap
     ethr =  1.50E-05,  avg # of iterations =  6.0

     negative rho (up, down):  8.316E-03 0.000E+00

     total cpu time spent up to now is       26.0 secs

     total energy              =   -1228.28496652 Ry
     estimated scf accuracy    <       0.00792206 Ry

     iteration # 16     ecut=    40.00 Ry     beta= 0.50
     Davidson diagonalization with overlap
     ethr =  1.50E-05,  avg # of iterations =  3.3

     negative rho (up, down):  8.073E-03 0.000E+00

     total cpu time spent up to now is       27.2 secs

     total energy              =   -1228.28487300 Ry
     estimated scf accuracy    <       0.00167008 Ry

     iteration # 17     ecut=    40.00 Ry     beta= 0.50
     Davidson diagonalization with overlap
     ethr =  4.64E-06,  avg # of iterations =  4.9

     negative rho (up, down):  8.004E-03 0.000E+00

     total cpu time spent up to now is       28.6 secs

     total energy              =   -1228.28503982 Ry
     estimated scf accuracy    <       0.00203569 Ry

     iteration # 18     ecut=    40.00 Ry     beta= 0.50
     Davidson diagonalization with overlap
     ethr =  4.64E-06,  avg # of iterations =  1.7

     negative rho (up, down):  8.028E-03 0.000E+00

     total cpu time spent up to now is       29.7 secs

     total energy              =   -1228.28505818 Ry
     estimated scf accuracy    <       0.00146943 Ry

     iteration # 19     ecut=    40.00 Ry     beta= 0.50
     Davidson diagonalization with overlap
     ethr =  4.08E-06,  avg # of iterations =  1.1

     negative rho (up, down):  8.208E-03 0.000E+00

     total cpu time spent up to now is       30.6 secs

     total energy              =   -1228.28525407 Ry
     estimated scf accuracy    <       0.00097772 Ry

     iteration # 20     ecut=    40.00 Ry     beta= 0.50
     Davidson diagonalization with overlap
     ethr =  2.72E-06,  avg # of iterations =  4.9

     negative rho (up, down):  8.016E-03 0.000E+00

     total cpu time spent up to now is       32.0 secs

     total energy              =   -1228.28492539 Ry
     estimated scf accuracy    <       0.00088747 Ry

     iteration # 21     ecut=    40.00 Ry     beta= 0.50
     Davidson diagonalization with overlap
     ethr =  2.47E-06,  avg # of iterations =  2.0

     negative rho (up, down):  7.920E-03 0.000E+00

     total cpu time spent up to now is       33.1 secs

     total energy              =   -1228.28481538 Ry
     estimated scf accuracy    <       0.00046219 Ry

     iteration # 22     ecut=    40.00 Ry     beta= 0.50
     Davidson diagonalization with overlap
     ethr =  1.28E-06,  avg # of iterations =  2.7

     negative rho (up, down):  7.920E-03 0.000E+00

     total cpu time spent up to now is       34.3 secs

     total energy              =   -1228.28483941 Ry
     estimated scf accuracy    <       0.00010350 Ry

     iteration # 23     ecut=    40.00 Ry     beta= 0.50
     Davidson diagonalization with overlap
     ethr =  2.87E-07,  avg # of iterations =  2.3

     negative rho (up, down):  7.950E-03 0.000E+00

     total cpu time spent up to now is       35.5 secs

     total energy              =   -1228.28485153 Ry
     estimated scf accuracy    <       0.00004382 Ry

     iteration # 24     ecut=    40.00 Ry     beta= 0.50
     Davidson diagonalization with overlap
     ethr =  1.22E-07,  avg # of iterations =  3.3

     negative rho (up, down):  7.983E-03 0.000E+00

     total cpu time spent up to now is       36.8 secs

     total energy              =   -1228.28483966 Ry
     estimated scf accuracy    <       0.00005541 Ry

     iteration # 25     ecut=    40.00 Ry     beta= 0.50
     Davidson diagonalization with overlap
     ethr =  1.22E-07,  avg # of iterations =  7.1

     negative rho (up, down):  8.003E-03 0.000E+00

     total cpu time spent up to now is       38.4 secs

     total energy              =   -1228.28482857 Ry
     estimated scf accuracy    <       0.00023245 Ry

     iteration # 26     ecut=    40.00 Ry     beta= 0.50
     Davidson diagonalization with overlap
     ethr =  1.22E-07,  avg # of iterations =  6.3

     negative rho (up, down):  8.063E-03 0.000E+00

     total cpu time spent up to now is       39.9 secs

     total energy              =   -1228.28483985 Ry
     estimated scf accuracy    <       0.00009349 Ry

     iteration # 27     ecut=    40.00 Ry     beta= 0.50
     Davidson diagonalization with overlap
     ethr =  1.22E-07,  avg # of iterations =  3.9

     negative rho (up, down):  8.112E-03 0.000E+00

     total cpu time spent up to now is       41.2 secs

     total energy              =   -1228.28484924 Ry
     estimated scf accuracy    <       0.00000885 Ry

     iteration # 28     ecut=    40.00 Ry     beta= 0.50
     Davidson diagonalization with overlap
     ethr =  2.46E-08,  avg # of iterations =  4.6

     negative rho (up, down):  8.122E-03 0.000E+00

     total cpu time spent up to now is       42.6 secs

     total energy              =   -1228.28485115 Ry
     estimated scf accuracy    <       0.00000220 Ry

     iteration # 29     ecut=    40.00 Ry     beta= 0.50
     Davidson diagonalization with overlap
     ethr =  6.11E-09,  avg # of iterations =  4.4

     negative rho (up, down):  8.140E-03 0.000E+00

     total cpu time spent up to now is       43.8 secs

     total energy              =   -1228.28485143 Ry
     estimated scf accuracy    <       0.00000030 Ry

     iteration # 30     ecut=    40.00 Ry     beta= 0.50
     Davidson diagonalization with overlap
     ethr =  8.32E-10,  avg # of iterations =  3.5

     negative rho (up, down):  8.144E-03 0.000E+00

     total cpu time spent up to now is       45.1 secs

     total energy              =   -1228.28485149 Ry
     estimated scf accuracy    <       0.00000014 Ry

     iteration # 31     ecut=    40.00 Ry     beta= 0.50
     Davidson diagonalization with overlap
     ethr =  3.92E-10,  avg # of iterations =  4.7

     negative rho (up, down):  8.134E-03 0.000E+00

     total cpu time spent up to now is       46.4 secs

     End of self-consistent calculation

          k = 0.0000 0.0000 0.0000 (  6287 PWs)   bands (ev):

   -75.2505 -48.7025 -48.7025 -48.6831 -48.6796 -48.6796 -39.4195 -39.1625
   -39.1625 -15.0065 -13.8156  -6.8691  -3.7322  -2.2102  -1.8627  -1.8627
    -0.7930  -0.7930

          k = 0.0000 0.0481 0.0000 (  6319 PWs)   bands (ev):

   -75.2503 -48.7081 -48.7038 -48.6921 -48.6895 -48.6800 -39.4188 -39.1671
   -39.1636 -14.9816 -13.7964  -6.8300  -3.7378  -2.1944  -1.9416  -1.8345
    -0.8558  -0.8389

          k = 0.0000 0.0962 0.0000 (  6327 PWs)   bands (ev):

   -75.2496 -48.7053 -48.7047 -48.6972 -48.6951 -48.6801 -39.4167 -39.1806
   -39.1668 -14.9078 -13.7393  -6.7146  -3.7552  -2.1780  -2.1407  -1.7519
    -1.0502  -0.9663

          k = 0.0000 0.1443 0.0000 (  6339 PWs)   bands (ev):

   -75.2485 -48.7071 -48.7031 -48.7005 -48.6995 -48.6849 -39.4134 -39.2020
   -39.1720 -14.7871 -13.6459  -6.5287  -3.7872  -2.5219  -2.0872  -1.6228
    -1.3799  -1.1512

          k = 0.0000 0.1925 0.0000 (  6353 PWs)   bands (ev):

   -75.2471 -48.7075 -48.7067 -48.7048 -48.7010 -48.6878 -39.4092 -39.2298
   -39.1788 -14.6231 -13.5191  -6.2829  -3.8405  -2.9647  -2.0399  -1.8134
    -1.4620  -1.3666

          k = 0.0000 0.2406 0.0000 (  6371 PWs)   bands (ev):

   -75.2455 -48.7119 -48.7103 -48.7050 -48.7046 -48.6908 -39.4042 -39.2620
   -39.1866 -14.4212 -13.3633  -5.9952  -3.9366  -3.4593  -2.3198  -2.0096
    -1.5948  -1.2871

          k = 0.0000 0.2887 0.0000 (  6387 PWs)   bands (ev):

   -75.2437 -48.7138 -48.7126 -48.7098 -48.7055 -48.6932 -39.3989 -39.2964
   -39.1950 -14.1892 -13.1844  -5.6965  -4.1723  -3.8974  -2.7710  -2.0626
    -1.8140  -1.1323

          k = 0.0000 0.3368 0.0000 (  6368 PWs)   bands (ev):

   -75.2419 -48.7172 -48.7067 -48.7066 -48.7007 -48.6877 -39.3935 -39.3306
   -39.2034 -13.9378 -12.9911  -5.4551  -4.6145  -4.1783  -3.1129  -2.1433
    -2.0148  -1.0215

          k = 0.0000 0.3849 0.0000 (  6400 PWs)   bands (ev):

   -75.2403 -48.7182 -48.7127 -48.7100 -48.7064 -48.6961 -39.3886 -39.3623
   -39.2112 -13.6820 -12.7947  -5.4917  -4.9093  -4.4310  -3.3163  -2.1953
    -2.1884  -0.9647

          k = 0.0000 0.4330 0.0000 (  6404 PWs)   bands (ev):

   -75.2389 -48.7175 -48.7168 -48.7105 -48.7069 -48.6946 -39.3896 -39.3841
   -39.2179 -13.4415 -12.6098  -5.8578  -5.0597  -4.5269  -3.4234  -2.3289
    -2.1792  -0.9503

          k = 0.0000 0.4811 0.0000 (  6400 PWs)   bands (ev):

   -75.2378 -48.7210 -48.7156 -48.7060 -48.7056 -48.6944 -39.4102 -39.3809
   -39.2230 -13.2408 -12.4549  -6.2209  -5.2780  -4.4893  -3.4791  -2.4319
    -2.1032  -0.9577

          k = 0.0000 0.5292 0.0000 (  6406 PWs)   bands (ev):

   -75.2371 -48.7250 -48.7123 -48.7104 -48.7078 -48.6911 -39.4231 -39.3789
   -39.2262 -13.1061 -12.3501  -6.4674  -5.4446  -4.4546  -3.5061  -2.4948
    -2.0178  -0.9691

          k = 0.0000-0.5774 0.0000 (  6392 PWs)   bands (ev):

   -75.2368 -48.7245 -48.7092 -48.7070 -48.7049 -48.6889 -39.4275 -39.3782
   -39.2273 -13.0584 -12.3128  -6.5542  -5.5047  -4.4436  -3.5142  -2.5159
    -1.9810  -0.9740

          k = 0.0417 0.0722 0.0000 (  6341 PWs)   bands (ev):

   -75.2499 -48.7086 -48.7083 -48.6961 -48.6914 -48.6883 -39.4174 -39.1761
   -39.1658 -14.9323 -13.7582  -6.7528  -3.7492  -2.1661  -2.0920  -1.7797
    -0.9898  -0.9201

          k = 0.0417 0.1203 0.0000 (  6343 PWs)   bands (ev):

   -75.2490 -48.7084 -48.7047 -48.7008 -48.6950 -48.6883 -39.4147 -39.1934
   -39.1702 -14.8350 -13.6830  -6.6019  -3.7732  -2.3830  -2.1085  -1.6764
    -1.2615  -1.0675

          k = 0.0417 0.1684 0.0000 (  6352 PWs)   bands (ev):

   -75.2477 -48.7080 -48.7052 -48.7046 -48.7008 -48.6883 -39.4110 -39.2177
   -39.1764 -14.6926 -13.5728  -6.3853  -3.8133  -2.7758  -2.0515  -1.6539
    -1.5359  -1.2624

          k = 0.0417 0.2165 0.0000 (  6364 PWs)   bands (ev):

   -75.2462 -48.7106 -48.7084 -48.7044 -48.7037 -48.6902 -39.4064 -39.2474
   -39.1840 -14.5095 -13.4314  -6.1166  -3.8801  -3.2420  -2.1414  -2.0025
    -1.4836  -1.3750

          k = 0.0417 0.2646 0.0000 (  6380 PWs)   bands (ev):

   -75.2445 -48.7155 -48.7108 -48.7079 -48.7061 -48.6901 -39.4012 -39.2804
   -39.1925 -14.2923 -13.2638  -5.8184  -4.0189  -3.7218  -2.6110  -2.0382
    -1.7082  -1.2197

          k = 0.0417 0.3127 0.0000 (  6360 PWs)   bands (ev):

   -75.2427 -48.7150 -48.7071 -48.7053 -48.7001 -48.6859 -39.3959 -39.3143
   -39.2012 -14.0501 -13.0773  -5.5339  -4.3884  -4.0465  -3.0121  -2.1203
    -1.9233  -1.0959

          k = 0.0417 0.3608 0.0000 (  6377 PWs)   bands (ev):

   -75.2410 -48.7183 -48.7085 -48.7061 -48.7051 -48.6877 -39.3907 -39.3469
   -39.2096 -13.7956 -12.8816  -5.3887  -4.8002  -4.3074  -3.2727  -2.2088
    -2.1131  -1.0260

          k = 0.0417 0.4090 0.0000 (  6387 PWs)   bands (ev):

   -75.2394 -48.7168 -48.7141 -48.7098 -48.7054 -48.6872 -39.3862 -39.3760
   -39.2172 -13.5459 -12.6898  -5.6399  -4.9567  -4.5026  -3.4076  -2.3090
    -2.2102  -1.0068

          k = 0.0417 0.4571 0.0000 (  6392 PWs)   bands (ev):

   -75.2382 -48.7188 -48.7164 -48.7069 -48.7052 -48.6892 -39.3998 -39.3822
   -39.2233 -13.3234 -12.5184  -6.0295  -5.1524  -4.5021  -3.4719  -2.4349
    -2.1765  -1.0157

          k = 0.0417 0.5052 0.0000 (  6398 PWs)   bands (ev):

   -75.2373 -48.7218 -48.7145 -48.7094 -48.7071 -48.6879 -39.4164 -39.3796
   -39.2277 -13.1537 -12.3868  -6.3397  -5.3571  -4.4556  -3.5013  -2.5270
    -2.0974  -1.0310

          k = 0.0417 0.5533 0.0000 (  6404 PWs)   bands (ev):

   -75.2368 -48.7250 -48.7145 -48.7090 -48.7071 -48.6896 -39.4250 -39.3782
   -39.2299 -13.0611 -12.3145  -6.5085  -5.4740  -4.4320  -3.5124  -2.5749
    -2.0361  -1.0405

          k = 0.0833 0.1443 0.0000 (  6352 PWs)   bands (ev):

   -75.2479 -48.7069 -48.7057 -48.7040 -48.6953 -48.6942 -39.4116 -39.2133
   -39.1759 -14.7160 -13.5909  -6.4198  -3.8035  -2.7076  -2.0570  -1.6099
    -1.5659  -1.2145

          k = 0.0833 0.1925 0.0000 (  6365 PWs)   bands (ev):

   -75.2466 -48.7106 -48.7097 -48.7055 -48.6991 -48.6931 -39.4075 -39.2391
   -39.1835 -14.5544 -13.4660  -6.1782  -3.8494  -3.1173  -2.0636  -2.0059
    -1.4393  -1.4020

          k = 0.0833 0.2406 0.0000 (  6370 PWs)   bands (ev):

   -75.2450 -48.7120 -48.7085 -48.7071 -48.7040 -48.6911 -39.4027 -39.2689
   -39.1923 -14.3556 -13.3125  -5.8934  -3.9285  -3.5753  -2.5343  -2.0298
    -1.6168  -1.3082

          k = 0.0833 0.2887 0.0000 (  6359 PWs)   bands (ev):

   -75.2432 -48.7135 -48.7079 -48.7055 -48.7028 -48.6840 -39.3975 -39.3006
   -39.2019 -14.1275 -13.1366  -5.5939  -4.1780  -3.9386  -2.9800  -2.1146
    -1.8394  -1.1954

          k = 0.0833 0.3368 0.0000 (  6357 PWs)   bands (ev):

   -75.2415 -48.7155 -48.7071 -48.7055 -48.7008 -48.6819 -39.3923 -39.3322
   -39.2114 -13.8807 -12.9466  -5.3462  -4.6266  -4.1643  -3.3006  -2.2370
    -2.0530  -1.1307

          k = 0.0833 0.3849 0.0000 (  6390 PWs)   bands (ev):

   -75.2399 -48.7176 -48.7130 -48.7116 -48.7075 -48.6866 -39.3876 -39.3616
   -39.2203 -13.6301 -12.7537  -5.4036  -4.8681  -4.4154  -3.4593  -2.3582
    -2.2261  -1.1228

          k = 0.0833 0.4330 0.0000 (  6380 PWs)   bands (ev):

   -75.2385 -48.7160 -48.7141 -48.7076 -48.7070 -48.6833 -39.3869 -39.3831
   -39.2279 -13.3951 -12.5726  -5.7820  -4.9928  -4.4988  -3.5155  -2.4972
    -2.2914  -1.1434

          k = 0.0833 0.4811 0.0000 (  6394 PWs)   bands (ev):

   -75.2375 -48.7216 -48.7176 -48.7084 -48.7079 -48.6836 -39.4058 -39.3802
   -39.2337 -13.1995 -12.4212  -6.1371  -5.2164  -4.4427  -3.5253  -2.6328
    -2.2660  -1.1627

          k = 0.0833 0.5292 0.0000 (  6400 PWs)   bands (ev):

   -75.2368 -48.7241 -48.7170 -48.7092 -48.7067 -48.6871 -39.4178 -39.3782
   -39.2373 -13.0685 -12.3189  -6.3756  -5.3841  -4.4010  -3.5181  -2.7274
    -2.2178  -1.1694

          k = 0.0833 0.5774 0.0000 (  6398 PWs)   bands (ev):

   -75.2366 -48.7244 -48.7179 -48.7081 -48.7047 -48.6877 -39.4219 -39.3775
   -39.2386 -13.0222 -12.2826  -6.4594  -5.4440  -4.3884  -3.5130  -2.7615
    -2.1960  -1.1694

          k = 0.1250 0.2165 0.0000 (  6360 PWs)   bands (ev):

   -75.2451 -48.7101 -48.7047 -48.7045 -48.6996 -48.6960 -39.4032 -39.2646
   -39.1927 -14.3770 -13.3289  -5.9186  -3.8977  -3.5184  -2.5142  -2.0280
    -1.5790  -1.3452

          k = 0.1250 0.2646 0.0000 (  6378 PWs)   bands (ev):

   -75.2435 -48.7133 -48.7092 -48.7067 -48.7043 -48.6959 -39.3984 -39.2925
   -39.2033 -14.1669 -13.1668  -5.6254  -4.0369  -3.8861  -2.9850  -2.1158
    -1.7848  -1.2614

          k = 0.1250 0.3127 0.0000 (  6367 PWs)   bands (ev):

   -75.2419 -48.7134 -48.7096 -48.7063 -48.7014 -48.6892 -39.3934 -39.3211
   -39.2144 -13.9334 -12.9866  -5.3347  -4.4597  -4.0364  -3.3819  -2.2679
    -2.0053  -1.2131

          k = 0.1250 0.3608 0.0000 (  6374 PWs)   bands (ev):

   -75.2403 -48.7150 -48.7076 -48.7067 -48.7053 -48.6898 -39.3886 -39.3486
   -39.2252 -13.6890 -12.7982  -5.1932  -4.8053  -4.2694  -3.5922  -2.4374
    -2.2210  -1.2203

          k = 0.1250 0.4090 0.0000 (  6391 PWs)   bands (ev):

   -75.2388 -48.7168 -48.7146 -48.7100 -48.7063 -48.6899 -39.3843 -39.3730
   -39.2350 -13.4504 -12.6141  -5.5056  -4.8311  -4.4765  -3.6411  -2.5960
    -2.3985  -1.2521

          k = 0.1250 0.4571 0.0000 (  6398 PWs)   bands (ev):

   -75.2377 -48.7199 -48.7176 -48.7090 -48.7068 -48.6903 -39.3930 -39.3806
   -39.2429 -13.2390 -12.4502  -5.8810  -5.0326  -4.4321  -3.6202  -2.7567
    -2.4927  -1.2683

          k = 0.1250 0.5052 0.0000 (  6408 PWs)   bands (ev):

   -75.2369 -48.7239 -48.7200 -48.7106 -48.7065 -48.6907 -39.4069 -39.3782
   -39.2486 -13.0785 -12.3250  -6.1688  -5.2420  -4.3631  -3.5707  -2.9085
    -2.5161  -1.2579

          k = 0.1250 0.5533 0.0000 (  6408 PWs)   bands (ev):

   -75.2364 -48.7245 -48.7211 -48.7089 -48.7059 -48.6918 -39.4142 -39.3769
   -39.2515 -12.9914 -12.2565  -6.3242  -5.3580  -4.3326  -3.5250  -3.0079
    -2.5153  -1.2401

          k = 0.1667 0.2887 0.0000 (  6376 PWs)   bands (ev):

   -75.2420 -48.7133 -48.7086 -48.7076 -48.7025 -48.6951 -39.3937 -39.3169
   -39.2159 -13.9512 -13.0002  -5.3327  -4.3888  -3.9778  -3.4333  -2.2826
    -1.9859  -1.2417

          k = 0.1667 0.3368 0.0000 (  6367 PWs)   bands (ev):

   -75.2404 -48.7140 -48.7081 -48.7064 -48.7015 -48.6893 -39.3891 -39.3406
   -39.2291 -13.7192 -12.8210  -5.0685  -4.7671  -4.1027  -3.7628  -2.4997
    -2.2092  -1.2658

          k = 0.1667 0.3849 0.0000 (  6389 PWs)   bands (ev):

   -75.2390 -48.7189 -48.7090 -48.7080 -48.7045 -48.6958 -39.3848 -39.3621
   -39.2418 -13.4853 -12.6400  -5.2494  -4.7514  -4.3896  -3.8317  -2.7195
    -2.4378  -1.3066

          k = 0.1667 0.4330 0.0000 (  6411 PWs)   bands (ev):

   -75.2378 -48.7230 -48.7168 -48.7085 -48.7066 -48.6995 -39.3817 -39.3797
   -39.2530 -13.2679 -12.4711  -5.6126  -4.8257  -4.4451  -3.7949  -2.9098
    -2.6486  -1.3183

          k = 0.1667 0.4811 0.0000 (  6417 PWs)   bands (ev):

   -75.2369 -48.7236 -48.7204 -48.7084 -48.7072 -48.6999 -39.3942 -39.3782
   -39.2616 -13.0885 -12.3309  -5.9167  -5.0643  -4.3386  -3.7164  -3.0731
    -2.8091  -1.2881

          k = 0.1667 0.5292 0.0000 (  6429 PWs)   bands (ev):

   -75.2363 -48.7275 -48.7239 -48.7099 -48.7083 -48.6995 -39.4028 -39.3764
   -39.2671 -12.9693 -12.2369  -6.1184  -5.2278  -4.2814  -3.6139  -3.2258
    -2.8953  -1.2416

          k = 0.1667 0.5774 0.0000 (  6438 PWs)   bands (ev):

   -75.2361 -48.7269 -48.7264 -48.7125 -48.7109 -48.6997 -39.4057 -39.3758
   -39.2690 -12.9274 -12.2037  -6.1892  -5.2847  -4.2658  -3.5439  -3.3143
    -2.9197  -1.2194

          k = 0.2083 0.3608 0.0000 (  6390 PWs)   bands (ev):

   -75.2391 -48.7191 -48.7076 -48.7070 -48.7064 -48.6976 -39.3850 -39.3578
   -39.2447 -13.4973 -12.6488  -5.1239  -4.7617  -4.2891  -3.9638  -2.7768
    -2.4427  -1.3203

          k = 0.2083 0.4090 0.0000 (  6415 PWs)   bands (ev):

   -75.2379 -48.7250 -48.7125 -48.7100 -48.7064 -48.7036 -39.3813 -39.3720
   -39.2599 -13.2831 -12.4821  -5.4163  -4.6467  -4.4864  -3.9675  -3.0489
    -2.6878  -1.3320

          k = 0.2083 0.4571 0.0000 (  6436 PWs)   bands (ev):

   -75.2369 -48.7270 -48.7206 -48.7112 -48.7086 -48.7073 -39.3831 -39.3781
   -39.2731 -13.0957 -12.3352  -5.6788  -4.8915  -4.3436  -3.9115  -3.2695
    -2.9253  -1.2872

          k = 0.2083 0.5052 0.0000 (  6444 PWs)   bands (ev):

   -75.2362 -48.7280 -48.7242 -48.7115 -48.7096 -48.7079 -39.3901 -39.3761
   -39.2829 -12.9553 -12.2241  -5.8783  -5.0838  -4.2551  -3.8188  -3.4158
    -3.1338  -1.2111

          k = 0.2083 0.5533 0.0000 (  6444 PWs)   bands (ev):

   -75.2358 -48.7280 -48.7257 -48.7113 -48.7097 -48.7066 -39.3937 -39.3750
   -39.2881 -12.8797 -12.1639  -5.9868  -5.1845  -4.2260  -3.7167  -3.5010
    -3.2726  -1.1528

          k = 0.2500 0.4330 0.0000 (  6434 PWs)   bands (ev):

   -75.2369 -48.7269 -48.7158 -48.7154 -48.7085 -48.7065 -39.3790 -39.3774
   -39.2779 -13.0984 -12.3367  -5.5704  -4.8121  -4.3530  -4.0138  -3.3635
    -2.9424  -1.2828

          k = 0.2500 0.4811 0.0000 (  6460 PWs)   bands (ev):

   -75.2361 -48.7303 -48.7230 -48.7167 -48.7147 -48.7096 -39.3808 -39.3758
   -39.2939 -12.9486 -12.2179  -5.6887  -4.9899  -4.2423  -4.0102  -3.5912
    -3.1785  -1.1833

          k = 0.2500 0.5292 0.0000 (  6452 PWs)   bands (ev):

   -75.2356 -48.7288 -48.7249 -48.7165 -48.7114 -48.7067 -39.3809 -39.3744
   -39.3053 -12.8505 -12.1393  -5.7632  -5.1088  -4.2339  -3.9504  -3.6929
    -3.3716  -1.0847

          k = 0.2500 0.5774 0.0000 (  6434 PWs)   bands (ev):

   -75.2355 -48.7270 -48.7250 -48.7128 -48.7062 -48.7033 -39.3806 -39.3739
   -39.3096 -12.8162 -12.1118  -5.7888  -5.1500  -4.2523  -3.9055  -3.7093
    -3.4608  -1.0433

          k = 0.2917 0.5052 0.0000 (  6448 PWs)   bands (ev):

   -75.2356 -48.7301 -48.7236 -48.7180 -48.7078 -48.7058 -39.3747 -39.3740
   -39.3133 -12.8406 -12.1310  -5.6450  -5.0987  -4.2344  -4.0687  -3.7749
    -3.3780  -1.0556

          k = 0.2917 0.5533 0.0000 (  6442 PWs)   bands (ev):

   -75.2353 -48.7281 -48.7260 -48.7150 -48.7066 -48.7052 -39.3734 -39.3671
   -39.3274 -12.7834 -12.0846  -5.5815  -5.1897  -4.3356  -4.0068  -3.8580
    -3.4917  -0.9667

          k = 0.3333 0.5774 0.0000 (  6450 PWs)   bands (ev):

   -75.2352 -48.7286 -48.7284 -48.7155 -48.7076 -48.7076 -39.3730 -39.3529
   -39.3444 -12.7603 -12.0658  -5.3835  -5.3485  -4.3981  -4.0006  -3.9265
    -3.5238  -0.9177

     highest occupied level (ev):    -0.7930

!    total energy              =   -1228.28485168 Ry
     total all-electron energy =    -37944.375282 Ry
     estimated scf accuracy    <          7.2E-09 Ry

     The total energy is the sum of the following terms:
     one-electron contribution =   -2749.14649541 Ry
     hartree contribution      =    1372.06299487 Ry
     xc contribution           =     -73.19220182 Ry
     ewald contribution        =    1014.62639045 Ry
     one-center paw contrib.   =    -792.63553978 Ry

     convergence has been achieved in  31 iterations

     Writing all to output data dir ./work/WSSe.save/

     init_run     :      0.91s CPU      0.95s WALL (       1 calls)
     electrons    :     44.63s CPU     45.24s WALL (       1 calls)

     Called by init_run:
     wfcinit      :      0.49s CPU      0.49s WALL (       1 calls)
     potinit      :      0.12s CPU      0.13s WALL (       1 calls)
     hinit0       :      0.26s CPU      0.27s WALL (       1 calls)

     Called by electrons:
     c_bands      :     36.82s CPU     37.27s WALL (      32 calls)
     sum_band     :      5.00s CPU      5.09s WALL (      32 calls)
     v_of_rho     :      0.11s CPU      0.11s WALL (      32 calls)
     newd         :      1.03s CPU      1.06s WALL (      32 calls)
     PAW_pot      :      1.65s CPU      1.72s WALL (      32 calls)
     mix_rho      :      0.07s CPU      0.07s WALL (      32 calls)

     Called by c_bands:
     init_us_2    :      0.69s CPU      0.70s WALL (    3965 calls)
     init_us_2:cp :      0.68s CPU      0.69s WALL (    3965 calls)
     cegterg      :     35.07s CPU     35.50s WALL (    1952 calls)

     Called by *egterg:
     cdiaghg      :      2.92s CPU      2.95s WALL (   11150 calls)
     h_psi        :     20.08s CPU     20.33s WALL (   11272 calls)
     s_psi        :      3.15s CPU      3.19s WALL (   11272 calls)
     g_psi        :      0.14s CPU      0.14s WALL (    9259 calls)

     Called by h_psi:
     h_psi:calbec :      3.52s CPU      3.57s WALL (   11272 calls)
     vloc_psi     :     13.24s CPU     13.40s WALL (   11272 calls)
     add_vuspsi   :      3.23s CPU      3.28s WALL (   11272 calls)

     General routines
     calbec       :      4.63s CPU      4.71s WALL (   13224 calls)
     fft          :      0.19s CPU      0.19s WALL (     353 calls)
     ffts         :      0.00s CPU      0.00s WALL (      32 calls)
     fftw         :     13.81s CPU     13.98s WALL (  244078 calls)

     Parallel routines

     PWSCF        :     45.89s CPU     46.61s WALL


   This run was terminated on:  10: 3: 6  30Jan2023            

=------------------------------------------------------------------------------=
   JOB DONE.
=------------------------------------------------------------------------------=
