
     Program PWSCF v.7.1 starts on 30Jan2023 at 10: 3: 6 

     This program is part of the open-source Quantum ESPRESSO suite
     for quantum simulation of materials; please cite
         "P. Giannozzi et al., J. Phys.:Condens. Matter 21 395502 (2009);
         "P. Giannozzi et al., J. Phys.:Condens. Matter 29 465901 (2017);
         "P. Giannozzi et al., J. Chem. Phys. 152 154105 (2020);
          URL http://www.quantum-espresso.org", 
     in publications or presentations arising from this work. More details at
     http://www.quantum-espresso.org/quote

     Parallel version (MPI), running on    12 processors

     MPI processes distributed on     1 nodes
     122636 MiB available memory on the printing compute node when the environment starts

     Waiting for input...
     Reading input from standard input

     Current dimensions of program PWSCF are:
     Max number of different atomic species (ntypx) = 10
     Max number of k-points (npk) =  40000
     Max angular momentum in pseudopotentials (lmaxx) =  4
     file W.pbe-spn-kjpaw_psl.1.0.0.UPF: wavefunction(s)  6S 5P 5D renormalized
     file S.pbe-n-kjpaw_psl.1.0.0.UPF: wavefunction(s)  3S 3P renormalized
     file Se.pbe-dn-kjpaw_psl.1.0.0.UPF: wavefunction(s)  4S 4P 3D renormalized
     Message from routine setup:
     using ibrav=0 with symmetry is DISCOURAGED, use correct ibrav instead

     R & G space division:  proc/nbgrp/npool/nimage =      12
     Subspace diagonalization in iterative solution of the eigenvalue problem:
     a serial algorithm will be used


     Parallelization info
     --------------------
     sticks:   dense  smooth     PW     G-vecs:    dense   smooth      PW
     Min          41      41     12                 5939     5939     972
     Max          42      42     13                 5982     5982    1003
     Sum         499     499    151                71511    71511   11871

     Using Slab Decomposition



     bravais-lattice index     =            0
     lattice parameter (alat)  =       6.0471  a.u.
     unit-cell volume          =    1496.1226 (a.u.)^3
     number of atoms/cell      =            3
     number of atomic types    =            3
     number of electrons       =        36.00
     number of Kohn-Sham states=           18
     kinetic-energy cutoff     =      50.0000  Ry
     charge density cutoff     =     200.0000  Ry
     scf convergence threshold =      1.0E-08
     mixing beta               =       0.5000
     number of iterations used =            8  plain     mixing
     Exchange-correlation= SLA  PW   PBX  PBC
                           (   1   4   3   4   0   0   0)

     celldm(1)=   6.047124  celldm(2)=   0.000000  celldm(3)=   0.000000
     celldm(4)=   0.000000  celldm(5)=   0.000000  celldm(6)=   0.000000

     crystal axes: (cart. coord. in units of alat)
               a(1) = (   1.000000   0.000000   0.000000 )  
               a(2) = (  -0.500000   0.866025   0.000000 )  
               a(3) = (   0.000000   0.000000   7.812500 )  

     reciprocal axes: (cart. coord. in units 2 pi/alat)
               b(1) = (  1.000000  0.577350 -0.000000 )  
               b(2) = (  0.000000  1.154701  0.000000 )  
               b(3) = (  0.000000 -0.000000  0.128000 )  


     PseudoPot. # 1 for W  read from file:
     /home/mainadmin/research/danu/pseudo/W.pbe-spn-kjpaw_psl.1.0.0.UPF
     MD5 check sum: 03c3df5b60893f488392c7401945500a
     Pseudo is Projector augmented-wave + core cor, Zval = 14.0
     Generated using &quot;atomic&quot; code by A. Dal Corso  v.6.2.2
     Shape of augmentation charge: PSQ
     Using radial grid of 1273 points,  6 beta functions with: 
                l(1) =   0
                l(2) =   0
                l(3) =   1
                l(4) =   1
                l(5) =   2
                l(6) =   2
     Q(r) pseudized with 0 coefficients 


     PseudoPot. # 2 for S  read from file:
     /home/mainadmin/research/danu/pseudo/S.pbe-n-kjpaw_psl.1.0.0.UPF
     MD5 check sum: fb45dfebcf3e72a4e1bd4a866ec2e262
     Pseudo is Projector augmented-wave + core cor, Zval =  6.0
     Generated using &quot;atomic&quot; code by A. Dal Corso  v.6.3
     Shape of augmentation charge: PSQ
     Using radial grid of 1151 points,  6 beta functions with: 
                l(1) =   0
                l(2) =   0
                l(3) =   1
                l(4) =   1
                l(5) =   2
                l(6) =   2
     Q(r) pseudized with 0 coefficients 


     PseudoPot. # 3 for Se read from file:
     /home/mainadmin/research/danu/pseudo/Se.pbe-dn-kjpaw_psl.1.0.0.UPF
     MD5 check sum: ac240dd2bae32a30e0bf3a38df9c8785
     Pseudo is Projector augmented-wave + core cor, Zval = 16.0
     Generated using &quot;atomic&quot; code by A. Dal Corso  v.6.3
     Shape of augmentation charge: PSQ
     Using radial grid of 1211 points,  6 beta functions with: 
                l(1) =   0
                l(2) =   0
                l(3) =   1
                l(4) =   1
                l(5) =   2
                l(6) =   2
     Q(r) pseudized with 0 coefficients 


     atomic species   valence    mass     pseudopotential
        W             14.00   183.84000     W ( 1.00)
        S              6.00    32.06500     S ( 1.00)
        Se            16.00    78.96000     Se( 1.00)

      6 Sym. Ops. (no inversion) found



   Cartesian axes

     site n.     atom                  positions (alat units)
         1           Se  tau(   1) = (   0.5000000   0.2886751   4.5312500  )
         2           W   tau(   2) = (  -0.0000000   0.5773503   3.9062500  )
         3           S   tau(   3) = (   0.5000000   0.2886751  -4.5312500  )

     number of k points=    61
                       cart. coord. in units 2pi/alat
        k(    1) = (   0.0000000   0.0000000   0.0000000), wk =   0.0034722
        k(    2) = (   0.0000000   0.0481125   0.0000000), wk =   0.0208333
        k(    3) = (   0.0000000   0.0962250   0.0000000), wk =   0.0208333
        k(    4) = (   0.0000000   0.1443376   0.0000000), wk =   0.0208333
        k(    5) = (   0.0000000   0.1924501   0.0000000), wk =   0.0208333
        k(    6) = (   0.0000000   0.2405626   0.0000000), wk =   0.0208333
        k(    7) = (   0.0000000   0.2886751   0.0000000), wk =   0.0208333
        k(    8) = (   0.0000000   0.3367877   0.0000000), wk =   0.0208333
        k(    9) = (   0.0000000   0.3849002   0.0000000), wk =   0.0208333
        k(   10) = (   0.0000000   0.4330127   0.0000000), wk =   0.0208333
        k(   11) = (   0.0000000   0.4811252   0.0000000), wk =   0.0208333
        k(   12) = (   0.0000000   0.5292377   0.0000000), wk =   0.0208333
        k(   13) = (   0.0000000  -0.5773503   0.0000000), wk =   0.0104167
        k(   14) = (   0.0416667   0.0721688   0.0000000), wk =   0.0208333
        k(   15) = (   0.0416667   0.1202813   0.0000000), wk =   0.0416667
        k(   16) = (   0.0416667   0.1683938   0.0000000), wk =   0.0416667
        k(   17) = (   0.0416667   0.2165064   0.0000000), wk =   0.0416667
        k(   18) = (   0.0416667   0.2646189   0.0000000), wk =   0.0416667
        k(   19) = (   0.0416667   0.3127314   0.0000000), wk =   0.0416667
        k(   20) = (   0.0416667   0.3608439   0.0000000), wk =   0.0416667
        k(   21) = (   0.0416667   0.4089564   0.0000000), wk =   0.0416667
        k(   22) = (   0.0416667   0.4570690   0.0000000), wk =   0.0416667
        k(   23) = (   0.0416667   0.5051815   0.0000000), wk =   0.0416667
        k(   24) = (   0.0416667   0.5532940   0.0000000), wk =   0.0416667
        k(   25) = (   0.0833333   0.1443376   0.0000000), wk =   0.0208333
        k(   26) = (   0.0833333   0.1924501   0.0000000), wk =   0.0416667
        k(   27) = (   0.0833333   0.2405626   0.0000000), wk =   0.0416667
        k(   28) = (   0.0833333   0.2886751   0.0000000), wk =   0.0416667
        k(   29) = (   0.0833333   0.3367877   0.0000000), wk =   0.0416667
        k(   30) = (   0.0833333   0.3849002   0.0000000), wk =   0.0416667
        k(   31) = (   0.0833333   0.4330127   0.0000000), wk =   0.0416667
        k(   32) = (   0.0833333   0.4811252   0.0000000), wk =   0.0416667
        k(   33) = (   0.0833333   0.5292377   0.0000000), wk =   0.0416667
        k(   34) = (   0.0833333   0.5773503   0.0000000), wk =   0.0208333
        k(   35) = (   0.1250000   0.2165064   0.0000000), wk =   0.0208333
        k(   36) = (   0.1250000   0.2646189   0.0000000), wk =   0.0416667
        k(   37) = (   0.1250000   0.3127314   0.0000000), wk =   0.0416667
        k(   38) = (   0.1250000   0.3608439   0.0000000), wk =   0.0416667
        k(   39) = (   0.1250000   0.4089564   0.0000000), wk =   0.0416667
        k(   40) = (   0.1250000   0.4570690   0.0000000), wk =   0.0416667
        k(   41) = (   0.1250000   0.5051815   0.0000000), wk =   0.0416667
        k(   42) = (   0.1250000   0.5532940   0.0000000), wk =   0.0416667
        k(   43) = (   0.1666667   0.2886751   0.0000000), wk =   0.0208333
        k(   44) = (   0.1666667   0.3367877   0.0000000), wk =   0.0416667
        k(   45) = (   0.1666667   0.3849002   0.0000000), wk =   0.0416667
        k(   46) = (   0.1666667   0.4330127   0.0000000), wk =   0.0416667
        k(   47) = (   0.1666667   0.4811252   0.0000000), wk =   0.0416667
        k(   48) = (   0.1666667   0.5292377   0.0000000), wk =   0.0416667
        k(   49) = (   0.1666667   0.5773503   0.0000000), wk =   0.0208333
        k(   50) = (   0.2083333   0.3608439   0.0000000), wk =   0.0208333
        k(   51) = (   0.2083333   0.4089564   0.0000000), wk =   0.0416667
        k(   52) = (   0.2083333   0.4570690   0.0000000), wk =   0.0416667
        k(   53) = (   0.2083333   0.5051815   0.0000000), wk =   0.0416667
        k(   54) = (   0.2083333   0.5532940   0.0000000), wk =   0.0416667
        k(   55) = (   0.2500000   0.4330127   0.0000000), wk =   0.0208333
        k(   56) = (   0.2500000   0.4811252   0.0000000), wk =   0.0416667
        k(   57) = (   0.2500000   0.5292377   0.0000000), wk =   0.0416667
        k(   58) = (   0.2500000   0.5773503   0.0000000), wk =   0.0208333
        k(   59) = (   0.2916667   0.5051815   0.0000000), wk =   0.0208333
        k(   60) = (   0.2916667   0.5532940   0.0000000), wk =   0.0416667
        k(   61) = (   0.3333333   0.5773503   0.0000000), wk =   0.0069444

     Dense  grid:    71511 G-vectors     FFT dimensions: (  27,  27, 216)

     Estimated max dynamical RAM per process >      37.51 MB

     Estimated total dynamical RAM >     450.15 MB

     Check: negative core charge=   -0.000002

     Initial potential from superposition of free atoms

     starting charge      35.9993, renormalised to      36.0000

     negative rho (up, down):  2.395E-03 0.000E+00
     Starting wfcs are   26 randomized atomic wfcs
     Checking if some PAW data can be deallocated... 

     total cpu time spent up to now is        1.6 secs

     Self-consistent Calculation

     iteration #  1     ecut=    50.00 Ry     beta= 0.50
     Davidson diagonalization with overlap
     ethr =  1.00E-02,  avg # of iterations =  2.0

     Threshold (ethr) on eigenvalues was too large:
     Diagonalizing with lowered threshold

     Davidson diagonalization with overlap
     ethr =  4.61E-04,  avg # of iterations =  2.1

     negative rho (up, down):  2.650E-03 0.000E+00

     total cpu time spent up to now is        5.1 secs

     total energy              =   -1228.30337706 Ry
     estimated scf accuracy    <       0.16828114 Ry

     iteration #  2     ecut=    50.00 Ry     beta= 0.50
     Davidson diagonalization with overlap
     ethr =  4.67E-04,  avg # of iterations =  8.4

     negative rho (up, down):  3.080E-03 0.000E+00

     total cpu time spent up to now is        7.9 secs

     total energy              =   -1228.06976197 Ry
     estimated scf accuracy    <       4.17877540 Ry

     iteration #  3     ecut=    50.00 Ry     beta= 0.50
     Davidson diagonalization with overlap
     ethr =  4.67E-04,  avg # of iterations =  7.6

     negative rho (up, down):  1.494E-02 0.000E+00

     total cpu time spent up to now is       10.6 secs

     total energy              =   -1228.37540579 Ry
     estimated scf accuracy    <       0.05123221 Ry

     iteration #  4     ecut=    50.00 Ry     beta= 0.50
     Davidson diagonalization with overlap
     ethr =  1.42E-04,  avg # of iterations =  5.2

     negative rho (up, down):  4.299E-02 0.000E+00

     total cpu time spent up to now is       13.1 secs

     total energy              =   -1228.49608851 Ry
     estimated scf accuracy    <       0.14157636 Ry

     iteration #  5     ecut=    50.00 Ry     beta= 0.50
     Davidson diagonalization with overlap
     ethr =  1.42E-04,  avg # of iterations =  8.7

     negative rho (up, down):  1.814E-02 0.000E+00

     total cpu time spent up to now is       16.3 secs

     total energy              =   -1227.30193291 Ry
     estimated scf accuracy    <      18.48319206 Ry

     iteration #  6     ecut=    50.00 Ry     beta= 0.50
     Davidson diagonalization with overlap
     ethr =  1.42E-04,  avg # of iterations =  8.4

     negative rho (up, down):  1.142E-02 0.000E+00

     total cpu time spent up to now is       19.4 secs

     total energy              =   -1228.37808471 Ry
     estimated scf accuracy    <       0.08325040 Ry

     iteration #  7     ecut=    50.00 Ry     beta= 0.50
     Davidson diagonalization with overlap
     ethr =  1.42E-04,  avg # of iterations =  2.4

     negative rho (up, down):  1.972E-02 0.000E+00

     total cpu time spent up to now is       21.3 secs

     total energy              =   -1228.41353251 Ry
     estimated scf accuracy    <       0.03800717 Ry

     iteration #  8     ecut=    50.00 Ry     beta= 0.50
     Davidson diagonalization with overlap
     ethr =  1.06E-04,  avg # of iterations =  4.4

     negative rho (up, down):  1.186E-02 0.000E+00

     total cpu time spent up to now is       23.4 secs

     total energy              =   -1228.36547238 Ry
     estimated scf accuracy    <       0.21107232 Ry

     iteration #  9     ecut=    50.00 Ry     beta= 0.50
     Davidson diagonalization with overlap
     ethr =  1.06E-04,  avg # of iterations =  4.0

     negative rho (up, down):  8.938E-03 0.000E+00

     total cpu time spent up to now is       25.5 secs

     total energy              =   -1228.38615668 Ry
     estimated scf accuracy    <       0.03831729 Ry

     iteration # 10     ecut=    50.00 Ry     beta= 0.50
     Davidson diagonalization with overlap
     ethr =  1.06E-04,  avg # of iterations =  2.0

     negative rho (up, down):  5.890E-03 0.000E+00

     total cpu time spent up to now is       27.2 secs

     total energy              =   -1228.37926297 Ry
     estimated scf accuracy    <       0.02063867 Ry

     iteration # 11     ecut=    50.00 Ry     beta= 0.50
     Davidson diagonalization with overlap
     ethr =  5.73E-05,  avg # of iterations =  2.0

     negative rho (up, down):  4.487E-03 0.000E+00

     total cpu time spent up to now is       29.0 secs

     total energy              =   -1228.37841202 Ry
     estimated scf accuracy    <       0.00844559 Ry

     iteration # 12     ecut=    50.00 Ry     beta= 0.50
     Davidson diagonalization with overlap
     ethr =  2.35E-05,  avg # of iterations =  2.4

     negative rho (up, down):  3.812E-03 0.000E+00

     total cpu time spent up to now is       30.7 secs

     total energy              =   -1228.37783038 Ry
     estimated scf accuracy    <       0.00439376 Ry

     iteration # 13     ecut=    50.00 Ry     beta= 0.50
     Davidson diagonalization with overlap
     ethr =  1.22E-05,  avg # of iterations =  2.1

     negative rho (up, down):  2.619E-03 0.000E+00

     total cpu time spent up to now is       32.4 secs

     total energy              =   -1228.37452508 Ry
     estimated scf accuracy    <       0.00262580 Ry

     iteration # 14     ecut=    50.00 Ry     beta= 0.50
     Davidson diagonalization with overlap
     ethr =  7.29E-06,  avg # of iterations =  4.7

     negative rho (up, down):  2.620E-03 0.000E+00

     total cpu time spent up to now is       34.6 secs

     total energy              =   -1228.37653933 Ry
     estimated scf accuracy    <       0.00058798 Ry

     iteration # 15     ecut=    50.00 Ry     beta= 0.50
     Davidson diagonalization with overlap
     ethr =  1.63E-06,  avg # of iterations =  2.4

     negative rho (up, down):  2.667E-03 0.000E+00

     total cpu time spent up to now is       36.3 secs

     total energy              =   -1228.37648406 Ry
     estimated scf accuracy    <       0.00049856 Ry

     iteration # 16     ecut=    50.00 Ry     beta= 0.50
     Davidson diagonalization with overlap
     ethr =  1.38E-06,  avg # of iterations =  3.6

     negative rho (up, down):  2.692E-03 0.000E+00

     total cpu time spent up to now is       38.2 secs

     total energy              =   -1228.37655666 Ry
     estimated scf accuracy    <       0.00020623 Ry

     iteration # 17     ecut=    50.00 Ry     beta= 0.50
     Davidson diagonalization with overlap
     ethr =  5.73E-07,  avg # of iterations =  5.3

     negative rho (up, down):  2.725E-03 0.000E+00

     total cpu time spent up to now is       40.2 secs

     total energy              =   -1228.37656606 Ry
     estimated scf accuracy    <       0.00035837 Ry

     iteration # 18     ecut=    50.00 Ry     beta= 0.50
     Davidson diagonalization with overlap
     ethr =  5.73E-07,  avg # of iterations =  2.1

     negative rho (up, down):  2.771E-03 0.000E+00

     total cpu time spent up to now is       42.0 secs

     total energy              =   -1228.37664023 Ry
     estimated scf accuracy    <       0.00030620 Ry

     iteration # 19     ecut=    50.00 Ry     beta= 0.50
     Davidson diagonalization with overlap
     ethr =  5.73E-07,  avg # of iterations =  2.0

     negative rho (up, down):  2.766E-03 0.000E+00

     total cpu time spent up to now is       44.2 secs

     total energy              =   -1228.37666315 Ry
     estimated scf accuracy    <       0.00033616 Ry

     iteration # 20     ecut=    50.00 Ry     beta= 0.50
     Davidson diagonalization with overlap
     ethr =  5.73E-07,  avg # of iterations =  3.5

     negative rho (up, down):  2.601E-03 0.000E+00

     total cpu time spent up to now is       46.4 secs

     total energy              =   -1228.37656748 Ry
     estimated scf accuracy    <       0.00046205 Ry

     iteration # 21     ecut=    50.00 Ry     beta= 0.50
     Davidson diagonalization with overlap
     ethr =  5.73E-07,  avg # of iterations =  5.0

     negative rho (up, down):  2.587E-03 0.000E+00

     total cpu time spent up to now is       48.6 secs

     total energy              =   -1228.37657586 Ry
     estimated scf accuracy    <       0.00160892 Ry

     iteration # 22     ecut=    50.00 Ry     beta= 0.50
     Davidson diagonalization with overlap
     ethr =  5.73E-07,  avg # of iterations =  3.7

     negative rho (up, down):  2.705E-03 0.000E+00

     total cpu time spent up to now is       50.5 secs

     total energy              =   -1228.37668945 Ry
     estimated scf accuracy    <       0.00086782 Ry

     iteration # 23     ecut=    50.00 Ry     beta= 0.50
     Davidson diagonalization with overlap
     ethr =  5.73E-07,  avg # of iterations =  2.8

     negative rho (up, down):  2.538E-03 0.000E+00

     total cpu time spent up to now is       52.5 secs

     total energy              =   -1228.37621736 Ry
     estimated scf accuracy    <       0.00094459 Ry

     iteration # 24     ecut=    50.00 Ry     beta= 0.50
     Davidson diagonalization with overlap
     ethr =  5.73E-07,  avg # of iterations =  7.3

     negative rho (up, down):  2.524E-03 0.000E+00

     total cpu time spent up to now is       55.1 secs

     total energy              =   -1228.37653547 Ry
     estimated scf accuracy    <       0.00019181 Ry

     iteration # 25     ecut=    50.00 Ry     beta= 0.50
     Davidson diagonalization with overlap
     ethr =  5.33E-07,  avg # of iterations =  1.5

     negative rho (up, down):  2.509E-03 0.000E+00

     total cpu time spent up to now is       56.7 secs

     total energy              =   -1228.37652644 Ry
     estimated scf accuracy    <       0.00010062 Ry

     iteration # 26     ecut=    50.00 Ry     beta= 0.50
     Davidson diagonalization with overlap
     ethr =  2.80E-07,  avg # of iterations =  3.9

     negative rho (up, down):  2.511E-03 0.000E+00

     total cpu time spent up to now is       58.6 secs

     total energy              =   -1228.37653436 Ry
     estimated scf accuracy    <       0.00000613 Ry

     iteration # 27     ecut=    50.00 Ry     beta= 0.50
     Davidson diagonalization with overlap
     ethr =  1.70E-08,  avg # of iterations =  5.7

     negative rho (up, down):  2.513E-03 0.000E+00

     total cpu time spent up to now is       60.8 secs

     total energy              =   -1228.37653621 Ry
     estimated scf accuracy    <       0.00000379 Ry

     iteration # 28     ecut=    50.00 Ry     beta= 0.50
     Davidson diagonalization with overlap
     ethr =  1.05E-08,  avg # of iterations =  3.7

     negative rho (up, down):  2.512E-03 0.000E+00

     total cpu time spent up to now is       62.8 secs

     total energy              =   -1228.37653666 Ry
     estimated scf accuracy    <       0.00000068 Ry

     iteration # 29     ecut=    50.00 Ry     beta= 0.50
     Davidson diagonalization with overlap
     ethr =  1.88E-09,  avg # of iterations =  5.1

     negative rho (up, down):  2.511E-03 0.000E+00

     total cpu time spent up to now is       64.9 secs

     total energy              =   -1228.37653634 Ry
     estimated scf accuracy    <       0.00000255 Ry

     iteration # 30     ecut=    50.00 Ry     beta= 0.50
     Davidson diagonalization with overlap
     ethr =  1.88E-09,  avg # of iterations =  6.1

     negative rho (up, down):  2.512E-03 0.000E+00

     total cpu time spent up to now is       67.2 secs

     total energy              =   -1228.37653684 Ry
     estimated scf accuracy    <       0.00000113 Ry

     iteration # 31     ecut=    50.00 Ry     beta= 0.50
     Davidson diagonalization with overlap
     ethr =  1.88E-09,  avg # of iterations =  1.5

     negative rho (up, down):  2.511E-03 0.000E+00

     total cpu time spent up to now is       68.8 secs

     total energy              =   -1228.37653650 Ry
     estimated scf accuracy    <       0.00000161 Ry

     iteration # 32     ecut=    50.00 Ry     beta= 0.50
     Davidson diagonalization with overlap
     ethr =  1.88E-09,  avg # of iterations =  4.4

     negative rho (up, down):  2.511E-03 0.000E+00

     total cpu time spent up to now is       70.8 secs

     total energy              =   -1228.37653664 Ry
     estimated scf accuracy    <       0.00000052 Ry

     iteration # 33     ecut=    50.00 Ry     beta= 0.50
     Davidson diagonalization with overlap
     ethr =  1.46E-09,  avg # of iterations =  3.1

     negative rho (up, down):  2.510E-03 0.000E+00

     total cpu time spent up to now is       73.2 secs

     total energy              =   -1228.37653655 Ry
     estimated scf accuracy    <       0.00000064 Ry

     iteration # 34     ecut=    50.00 Ry     beta= 0.50
     Davidson diagonalization with overlap
     ethr =  1.46E-09,  avg # of iterations =  2.0

     negative rho (up, down):  2.507E-03 0.000E+00

     total cpu time spent up to now is       75.0 secs

     total energy              =   -1228.37653633 Ry
     estimated scf accuracy    <       0.00000044 Ry

     iteration # 35     ecut=    50.00 Ry     beta= 0.50
     Davidson diagonalization with overlap
     ethr =  1.23E-09,  avg # of iterations =  6.1

     negative rho (up, down):  2.506E-03 0.000E+00

     total cpu time spent up to now is       77.4 secs

     total energy              =   -1228.37653624 Ry
     estimated scf accuracy    <       0.00000362 Ry

     iteration # 36     ecut=    50.00 Ry     beta= 0.50
     Davidson diagonalization with overlap
     ethr =  1.23E-09,  avg # of iterations =  5.6

     negative rho (up, down):  2.506E-03 0.000E+00

     total cpu time spent up to now is       79.6 secs

     total energy              =   -1228.37653640 Ry
     estimated scf accuracy    <       0.00000019 Ry

     iteration # 37     ecut=    50.00 Ry     beta= 0.50
     Davidson diagonalization with overlap
     ethr =  5.26E-10,  avg # of iterations =  2.5

     negative rho (up, down):  2.505E-03 0.000E+00

     total cpu time spent up to now is       81.4 secs

     total energy              =   -1228.37653640 Ry
     estimated scf accuracy    <       0.00000006 Ry

     iteration # 38     ecut=    50.00 Ry     beta= 0.50
     Davidson diagonalization with overlap
     ethr =  1.61E-10,  avg # of iterations =  5.6

     negative rho (up, down):  2.505E-03 0.000E+00

     total cpu time spent up to now is       83.9 secs

     total energy              =   -1228.37653643 Ry
     estimated scf accuracy    <       0.00000008 Ry

     iteration # 39     ecut=    50.00 Ry     beta= 0.50
     Davidson diagonalization with overlap
     ethr =  1.61E-10,  avg # of iterations =  1.8

     negative rho (up, down):  2.506E-03 0.000E+00

     total cpu time spent up to now is       85.5 secs

     total energy              =   -1228.37653642 Ry
     estimated scf accuracy    <       0.00000007 Ry

     iteration # 40     ecut=    50.00 Ry     beta= 0.50
     Davidson diagonalization with overlap
     ethr =  1.61E-10,  avg # of iterations =  2.2

     negative rho (up, down):  2.506E-03 0.000E+00

     total cpu time spent up to now is       87.3 secs

     total energy              =   -1228.37653642 Ry
     estimated scf accuracy    <       0.00000002 Ry

     iteration # 41     ecut=    50.00 Ry     beta= 0.50
     Davidson diagonalization with overlap
     ethr =  4.40E-11,  avg # of iterations =  3.7

     negative rho (up, down):  2.502E-03 0.000E+00

     total cpu time spent up to now is       89.3 secs

     End of self-consistent calculation

          k = 0.0000 0.0000 0.0000 (  8939 PWs)   bands (ev):

   -75.2414 -48.4313 -48.4313 -48.4277 -48.4261 -48.4261 -39.4098 -39.1513
   -39.1513 -14.9951 -13.8049  -6.8586  -3.7215  -2.1989  -1.8518  -1.8518
    -0.7822  -0.7822

          k = 0.0000 0.0481 0.0000 (  8901 PWs)   bands (ev):

   -75.2411 -48.4312 -48.4311 -48.4274 -48.4259 -48.4259 -39.4090 -39.1559
   -39.1524 -14.9703 -13.7857  -6.8195  -3.7271  -2.1830  -1.9307  -1.8235
    -0.8449  -0.8280

          k = 0.0000 0.0962 0.0000 (  8907 PWs)   bands (ev):

   -75.2404 -48.4311 -48.4307 -48.4273 -48.4261 -48.4259 -39.4070 -39.1694
   -39.1556 -14.8964 -13.7286  -6.7042  -3.7446  -2.1672  -2.1293  -1.7410
    -1.0392  -0.9555

          k = 0.0000 0.1443 0.0000 (  8908 PWs)   bands (ev):

   -75.2393 -48.4311 -48.4302 -48.4270 -48.4262 -48.4259 -39.4037 -39.1908
   -39.1608 -14.7756 -13.6352  -6.5182  -3.7766  -2.5109  -2.0760  -1.6118
    -1.3689  -1.1404

          k = 0.0000 0.1925 0.0000 (  8908 PWs)   bands (ev):

   -75.2379 -48.4311 -48.4293 -48.4267 -48.4263 -48.4258 -39.3994 -39.2186
   -39.1675 -14.6115 -13.5084  -6.2724  -3.8299  -2.9537  -2.0290  -1.8023
    -1.4510  -1.3557

          k = 0.0000 0.2406 0.0000 (  8902 PWs)   bands (ev):

   -75.2363 -48.4312 -48.4285 -48.4267 -48.4258 -48.4258 -39.3945 -39.2508
   -39.1754 -14.4095 -13.3525  -5.9847  -3.9261  -3.4484  -2.3091  -1.9986
    -1.5840  -1.2762

          k = 0.0000 0.2887 0.0000 (  8938 PWs)   bands (ev):

   -75.2345 -48.4313 -48.4281 -48.4270 -48.4257 -48.4254 -39.3891 -39.2853
   -39.1838 -14.1772 -13.1737  -5.6859  -4.1619  -3.8866  -2.7604  -2.0517
    -1.8032  -1.1214

          k = 0.0000 0.3368 0.0000 (  8946 PWs)   bands (ev):

   -75.2327 -48.4314 -48.4277 -48.4272 -48.4255 -48.4248 -39.3837 -39.3195
   -39.1923 -13.9257 -12.9804  -5.4445  -4.6043  -4.1675  -3.1024  -2.1325
    -2.0040  -1.0107

          k = 0.0000 0.3849 0.0000 (  8936 PWs)   bands (ev):

   -75.2310 -48.4315 -48.4275 -48.4274 -48.4251 -48.4240 -39.3788 -39.3511
   -39.2001 -13.6696 -12.7839  -5.4811  -4.8993  -4.4202  -3.3059  -2.1844
    -2.1777  -0.9540

          k = 0.0000 0.4330 0.0000 (  8942 PWs)   bands (ev):

   -75.2296 -48.4317 -48.4277 -48.4273 -48.4246 -48.4236 -39.3786 -39.3741
   -39.2068 -13.4288 -12.5990  -5.8477  -5.0495  -4.5162  -3.4131  -2.3182
    -2.1684  -0.9396

          k = 0.0000 0.4811 0.0000 (  8960 PWs)   bands (ev):

   -75.2285 -48.4319 -48.4279 -48.4272 -48.4242 -48.4234 -39.3991 -39.3711
   -39.2119 -13.2279 -12.4441  -6.2112  -5.2677  -4.4786  -3.4688  -2.4212
    -2.0925  -0.9470

          k = 0.0000 0.5292 0.0000 (  8964 PWs)   bands (ev):

   -75.2278 -48.4320 -48.4280 -48.4271 -48.4238 -48.4233 -39.4121 -39.3690
   -39.2151 -13.0930 -12.3393  -6.4579  -5.4343  -4.4438  -3.4959  -2.4841
    -2.0071  -0.9585

          k = 0.0000-0.5774 0.0000 (  8938 PWs)   bands (ev):

   -75.2276 -48.4320 -48.4281 -48.4270 -48.4234 -48.4230 -39.4165 -39.3683
   -39.2161 -13.0452 -12.3020  -6.5448  -5.4943  -4.4329  -3.5040  -2.5053
    -1.9703  -0.9634

          k = 0.0417 0.0722 0.0000 (  8917 PWs)   bands (ev):

   -75.2407 -48.4311 -48.4309 -48.4274 -48.4261 -48.4260 -39.4077 -39.1649
   -39.1546 -14.9209 -13.7475  -6.7423  -3.7386  -2.1548  -2.0810  -1.7687
    -0.9789  -0.9092

          k = 0.0417 0.1203 0.0000 (  8903 PWs)   bands (ev):

   -75.2398 -48.4310 -48.4304 -48.4271 -48.4261 -48.4259 -39.4050 -39.1821
   -39.1590 -14.8236 -13.6723  -6.5914  -3.7626  -2.3721  -2.0973  -1.6654
    -1.2506  -1.0566

          k = 0.0417 0.1684 0.0000 (  8898 PWs)   bands (ev):

   -75.2385 -48.4310 -48.4297 -48.4267 -48.4263 -48.4258 -39.4012 -39.2065
   -39.1652 -14.6811 -13.5621  -6.3748  -3.8027  -2.7649  -2.0405  -1.6429
    -1.5249  -1.2515

          k = 0.0417 0.2165 0.0000 (  8917 PWs)   bands (ev):

   -75.2370 -48.4312 -48.4290 -48.4267 -48.4262 -48.4258 -39.3966 -39.2362
   -39.1728 -14.4979 -13.4207  -6.1060  -3.8696  -3.2310  -2.1307  -1.9914
    -1.4728  -1.3640

          k = 0.0417 0.2646 0.0000 (  8918 PWs)   bands (ev):

   -75.2353 -48.4312 -48.4284 -48.4268 -48.4258 -48.4255 -39.3914 -39.2692
   -39.1812 -14.2805 -13.2531  -5.8079  -4.0084  -3.7110  -2.6003  -2.0273
    -1.6974  -1.2087

          k = 0.0417 0.3127 0.0000 (  8941 PWs)   bands (ev):

   -75.2335 -48.4313 -48.4279 -48.4271 -48.4256 -48.4250 -39.3861 -39.3032
   -39.1900 -14.0380 -13.0665  -5.5233  -4.3781  -4.0357  -3.0016  -2.1095
    -1.9125  -1.0850

          k = 0.0417 0.3608 0.0000 (  8936 PWs)   bands (ev):

   -75.2318 -48.4314 -48.4275 -48.4273 -48.4253 -48.4243 -39.3809 -39.3358
   -39.1985 -13.7833 -12.8708  -5.3781  -4.7902  -4.2966  -3.2623  -2.1981
    -2.1023  -1.0152

          k = 0.0417 0.4090 0.0000 (  8924 PWs)   bands (ev):

   -75.2302 -48.4314 -48.4275 -48.4273 -48.4248 -48.4236 -39.3763 -39.3648
   -39.2060 -13.5334 -12.6790  -5.6297  -4.9467  -4.4918  -3.3972  -2.2983
    -2.1993  -0.9960

          k = 0.0417 0.4571 0.0000 (  8958 PWs)   bands (ev):

   -75.2290 -48.4317 -48.4278 -48.4272 -48.4244 -48.4235 -39.3887 -39.3724
   -39.2122 -13.3106 -12.5076  -6.0196  -5.1422  -4.4914  -3.4616  -2.4242
    -2.1657  -1.0050

          k = 0.0417 0.5052 0.0000 (  8956 PWs)   bands (ev):

   -75.2281 -48.4318 -48.4279 -48.4272 -48.4240 -48.4233 -39.4054 -39.3697
   -39.2165 -13.1406 -12.3759  -6.3301  -5.3467  -4.4449  -3.4910  -2.5164
    -2.0867  -1.0203

          k = 0.0417 0.5533 0.0000 (  8964 PWs)   bands (ev):

   -75.2276 -48.4319 -48.4280 -48.4272 -48.4238 -48.4232 -39.4140 -39.3683
   -39.2188 -13.0480 -12.3036  -6.4991  -5.4637  -4.4212  -3.5021  -2.5642
    -2.0255  -1.0298

          k = 0.0833 0.1443 0.0000 (  8919 PWs)   bands (ev):

   -75.2387 -48.4311 -48.4300 -48.4268 -48.4263 -48.4259 -39.4018 -39.2021
   -39.1647 -14.7045 -13.5802  -6.4094  -3.7929  -2.6966  -2.0459  -1.5990
    -1.5549  -1.2035

          k = 0.0833 0.1925 0.0000 (  8907 PWs)   bands (ev):

   -75.2373 -48.4310 -48.4294 -48.4265 -48.4263 -48.4257 -39.3977 -39.2279
   -39.1723 -14.5428 -13.4553  -6.1677  -3.8388  -3.1063  -2.0529  -1.9949
    -1.4283  -1.3911

          k = 0.0833 0.2406 0.0000 (  8927 PWs)   bands (ev):

   -75.2357 -48.4310 -48.4289 -48.4267 -48.4261 -48.4255 -39.3929 -39.2577
   -39.1811 -14.3439 -13.3018  -5.8829  -3.9180  -3.5645  -2.5235  -2.0191
    -1.6059  -1.2972

          k = 0.0833 0.2887 0.0000 (  8932 PWs)   bands (ev):

   -75.2340 -48.4310 -48.4282 -48.4270 -48.4259 -48.4250 -39.3877 -39.2896
   -39.1906 -14.1155 -13.1258  -5.5834  -4.1676  -3.9279  -2.9693  -2.1039
    -1.8286  -1.1844

          k = 0.0833 0.3368 0.0000 (  8931 PWs)   bands (ev):

   -75.2323 -48.4311 -48.4278 -48.4272 -48.4257 -48.4244 -39.3825 -39.3211
   -39.2002 -13.8685 -12.9358  -5.3357  -4.6164  -4.1536  -3.2901  -2.2264
    -2.0422  -1.1199

          k = 0.0833 0.3849 0.0000 (  8924 PWs)   bands (ev):

   -75.2307 -48.4311 -48.4275 -48.4274 -48.4253 -48.4237 -39.3777 -39.3504
   -39.2091 -13.6176 -12.7429  -5.3931  -4.8581  -4.4046  -3.4488  -2.3477
    -2.2151  -1.1120

          k = 0.0833 0.4330 0.0000 (  8939 PWs)   bands (ev):

   -75.2293 -48.4312 -48.4276 -48.4274 -48.4249 -48.4235 -39.3760 -39.3731
   -39.2167 -13.3824 -12.5618  -5.7720  -4.9826  -4.4881  -3.5052  -2.4867
    -2.2805  -1.1326

          k = 0.0833 0.4811 0.0000 (  8948 PWs)   bands (ev):

   -75.2283 -48.4314 -48.4278 -48.4273 -48.4244 -48.4233 -39.3948 -39.3703
   -39.2225 -13.1865 -12.4104  -6.1274  -5.2060  -4.4321  -3.5149  -2.6223
    -2.2553  -1.1520

          k = 0.0833 0.5292 0.0000 (  8964 PWs)   bands (ev):

   -75.2276 -48.4315 -48.4279 -48.4273 -48.4241 -48.4233 -39.4068 -39.3683
   -39.2262 -13.0554 -12.3081  -6.3661  -5.3737  -4.3903  -3.5078  -2.7168
    -2.2072  -1.1586

          k = 0.0833 0.5774 0.0000 (  8968 PWs)   bands (ev):

   -75.2274 -48.4316 -48.4279 -48.4273 -48.4240 -48.4234 -39.4109 -39.3677
   -39.2275 -13.0090 -12.2718  -6.4500  -5.4336  -4.3777  -3.5027  -2.7509
    -2.1854  -1.1587

          k = 0.1250 0.2165 0.0000 (  8925 PWs)   bands (ev):

   -75.2359 -48.4309 -48.4291 -48.4266 -48.4262 -48.4255 -39.3934 -39.2534
   -39.1814 -14.3652 -13.3182  -5.9081  -3.8873  -3.5075  -2.5034  -2.0173
    -1.5681  -1.3342

          k = 0.1250 0.2646 0.0000 (  8931 PWs)   bands (ev):

   -75.2343 -48.4308 -48.4286 -48.4268 -48.4262 -48.4250 -39.3886 -39.2814
   -39.1920 -14.1550 -13.1560  -5.6149  -4.0264  -3.8753  -2.9743  -2.1051
    -1.7739  -1.2504

          k = 0.1250 0.3127 0.0000 (  8932 PWs)   bands (ev):

   -75.2326 -48.4307 -48.4282 -48.4270 -48.4261 -48.4245 -39.3836 -39.3100
   -39.2032 -13.9212 -12.9759  -5.3242  -4.4493  -4.0258  -3.3712  -2.2573
    -1.9944  -1.2021

          k = 0.1250 0.3608 0.0000 (  8909 PWs)   bands (ev):

   -75.2310 -48.4306 -48.4277 -48.4271 -48.4257 -48.4238 -39.3787 -39.3374
   -39.2140 -13.6766 -12.7874  -5.1826  -4.7952  -4.2586  -3.5816  -2.4270
    -2.2101  -1.2094

          k = 0.1250 0.4090 0.0000 (  8926 PWs)   bands (ev):

   -75.2296 -48.4307 -48.4276 -48.4274 -48.4253 -48.4235 -39.3745 -39.3618
   -39.2237 -13.4378 -12.6033  -5.4954  -4.8209  -4.4658  -3.6306  -2.5856
    -2.3876  -1.2412

          k = 0.1250 0.4571 0.0000 (  8932 PWs)   bands (ev):

   -75.2284 -48.4308 -48.4277 -48.4274 -48.4248 -48.4233 -39.3819 -39.3708
   -39.2317 -13.2261 -12.4394  -5.8712  -5.0223  -4.4215  -3.6098  -2.7464
    -2.4819  -1.2574

          k = 0.1250 0.5052 0.0000 (  8944 PWs)   bands (ev):

   -75.2276 -48.4309 -48.4277 -48.4274 -48.4245 -48.4233 -39.3959 -39.3683
   -39.2374 -13.0654 -12.3142  -6.1593  -5.2316  -4.3525  -3.5603  -2.8980
    -2.5054  -1.2470

          k = 0.1250 0.5533 0.0000 (  8962 PWs)   bands (ev):

   -75.2272 -48.4310 -48.4278 -48.4274 -48.4243 -48.4234 -39.4031 -39.3670
   -39.2403 -12.9782 -12.2456  -6.3148  -5.3476  -4.3220  -3.5146  -2.9974
    -2.5047  -1.2292

          k = 0.1667 0.2887 0.0000 (  8919 PWs)   bands (ev):

   -75.2328 -48.4305 -48.4283 -48.4269 -48.4261 -48.4244 -39.3839 -39.3058
   -39.2046 -13.9391 -12.9894  -5.3222  -4.3784  -3.9672  -3.4226  -2.2721
    -1.9750  -1.2307

          k = 0.1667 0.3368 0.0000 (  8912 PWs)   bands (ev):

   -75.2312 -48.4303 -48.4280 -48.4271 -48.4260 -48.4238 -39.3793 -39.3294
   -39.2178 -13.7069 -12.8102  -5.0580  -4.7568  -4.0921  -3.7522  -2.4893
    -2.1984  -1.2549

          k = 0.1667 0.3849 0.0000 (  8906 PWs)   bands (ev):

   -75.2298 -48.4302 -48.4278 -48.4272 -48.4258 -48.4233 -39.3750 -39.3509
   -39.2305 -13.4727 -12.6292  -5.2392  -4.7413  -4.3788  -3.8211  -2.7091
    -2.4270  -1.2956

          k = 0.1667 0.4330 0.0000 (  8926 PWs)   bands (ev):

   -75.2285 -48.4302 -48.4277 -48.4273 -48.4255 -48.4233 -39.3716 -39.3688
   -39.2417 -13.2550 -12.4603  -5.6027  -4.8153  -4.4345  -3.7844  -2.8995
    -2.6378  -1.3072

          k = 0.1667 0.4811 0.0000 (  8941 PWs)   bands (ev):

   -75.2276 -48.4303 -48.4277 -48.4274 -48.4250 -48.4234 -39.3831 -39.3683
   -39.2504 -13.0754 -12.3201  -5.9071  -5.0539  -4.3281  -3.7059  -3.0629
    -2.7984  -1.2771

          k = 0.1667 0.5292 0.0000 (  8949 PWs)   bands (ev):

   -75.2270 -48.4304 -48.4276 -48.4275 -48.4247 -48.4235 -39.3917 -39.3666
   -39.2559 -12.9560 -12.2261  -6.1090  -5.2173  -4.2709  -3.6035  -3.2155
    -2.8846  -1.2306

          k = 0.1667 0.5774 0.0000 (  8938 PWs)   bands (ev):

   -75.2268 -48.4303 -48.4276 -48.4275 -48.4244 -48.4235 -39.3947 -39.3659
   -39.2578 -12.9141 -12.1928  -6.1798  -5.2742  -4.2553  -3.5335  -3.3039
    -2.9091  -1.2084

          k = 0.2083 0.3608 0.0000 (  8899 PWs)   bands (ev):

   -75.2298 -48.4299 -48.4279 -48.4271 -48.4260 -48.4232 -39.3751 -39.3466
   -39.2335 -13.4847 -12.6380  -5.1136  -4.7515  -4.2784  -3.9532  -2.7664
    -2.4319  -1.3093

          k = 0.2083 0.4090 0.0000 (  8918 PWs)   bands (ev):

   -75.2286 -48.4298 -48.4278 -48.4271 -48.4258 -48.4233 -39.3715 -39.3609
   -39.2487 -13.2703 -12.4713  -5.4064  -4.6365  -4.4757  -3.9569  -3.0385
    -2.6771  -1.3209

          k = 0.2083 0.4571 0.0000 (  8925 PWs)   bands (ev):

   -75.2276 -48.4297 -48.4278 -48.4272 -48.4255 -48.4233 -39.3720 -39.3682
   -39.2619 -13.0827 -12.3244  -5.6691  -4.8810  -4.3331  -3.9010  -3.2591
    -2.9147  -1.2760

          k = 0.2083 0.5052 0.0000 (  8937 PWs)   bands (ev):

   -75.2269 -48.4298 -48.4278 -48.4272 -48.4252 -48.4234 -39.3791 -39.3662
   -39.2717 -12.9420 -12.2133  -5.8688  -5.0732  -4.2447  -3.8084  -3.4055
    -3.1232  -1.1999

          k = 0.2083 0.5533 0.0000 (  8957 PWs)   bands (ev):

   -75.2265 -48.4298 -48.4278 -48.4273 -48.4250 -48.4236 -39.3826 -39.3651
   -39.2769 -12.8663 -12.1531  -5.9774  -5.1739  -4.2155  -3.7063  -3.4906
    -3.2620  -1.1417

          k = 0.2500 0.4330 0.0000 (  8911 PWs)   bands (ev):

   -75.2276 -48.4294 -48.4279 -48.4269 -48.4257 -48.4233 -39.3687 -39.3667
   -39.2667 -13.0853 -12.3259  -5.5606  -4.8017  -4.3426  -4.0033  -3.3531
    -2.9318  -1.2716

          k = 0.2500 0.4811 0.0000 (  8928 PWs)   bands (ev):

   -75.2268 -48.4293 -48.4280 -48.4269 -48.4256 -48.4234 -39.3697 -39.3659
   -39.2827 -12.9354 -12.2070  -5.6791  -4.9794  -4.2319  -3.9999  -3.5806
    -3.1680  -1.1721

          k = 0.2500 0.5292 0.0000 (  8949 PWs)   bands (ev):

   -75.2263 -48.4293 -48.4281 -48.4269 -48.4255 -48.4236 -39.3698 -39.3646
   -39.2941 -12.8371 -12.1285  -5.7537  -5.0983  -4.2236  -3.9401  -3.6822
    -3.3612  -1.0736

          k = 0.2500 0.5774 0.0000 (  8961 PWs)   bands (ev):

   -75.2262 -48.4294 -48.4281 -48.4269 -48.4254 -48.4238 -39.3696 -39.3641
   -39.2984 -12.8028 -12.1009  -5.7793  -5.1396  -4.2421  -3.8950  -3.6987
    -3.4503  -1.0322

          k = 0.2917 0.5052 0.0000 (  8943 PWs)   bands (ev):

   -75.2263 -48.4291 -48.4281 -48.4267 -48.4256 -48.4236 -39.3645 -39.3632
   -39.3021 -12.8273 -12.1201  -5.6354  -5.0884  -4.2239  -4.0585  -3.7642
    -3.3676  -1.0444

          k = 0.2917 0.5533 0.0000 (  8946 PWs)   bands (ev):

   -75.2260 -48.4289 -48.4282 -48.4264 -48.4257 -48.4237 -39.3635 -39.3560
   -39.3163 -12.7699 -12.0738  -5.5720  -5.1795  -4.3251  -3.9964  -3.8475
    -3.4812  -0.9556

          k = 0.3333 0.5774 0.0000 (  8943 PWs)   bands (ev):

   -75.2259 -48.4288 -48.4283 -48.4261 -48.4260 -48.4238 -39.3632 -39.3418
   -39.3333 -12.7468 -12.0549  -5.3739  -5.3385  -4.3874  -3.9901  -3.9162
    -3.5132  -0.9067

     highest occupied level (ev):    -0.7822

!    total energy              =   -1228.37653643 Ry
     total all-electron energy =    -37944.466967 Ry
     estimated scf accuracy    <          2.0E-09 Ry

     The total energy is the sum of the following terms:
     one-electron contribution =   -2749.49151496 Ry
     hartree contribution      =    1372.30343225 Ry
     xc contribution           =     -73.23235054 Ry
     ewald contribution        =    1014.62639044 Ry
     one-center paw contrib.   =    -792.58249362 Ry

     convergence has been achieved in  41 iterations

     Writing all to output data dir ./work/WSSe.save/

     init_run     :      1.34s CPU      1.38s WALL (       1 calls)
     electrons    :     86.91s CPU     87.67s WALL (       1 calls)

     Called by init_run:
     wfcinit      :      0.81s CPU      0.82s WALL (       1 calls)
     potinit      :      0.15s CPU      0.16s WALL (       1 calls)
     hinit0       :      0.32s CPU      0.32s WALL (       1 calls)

     Called by electrons:
     c_bands      :     71.15s CPU     71.65s WALL (      42 calls)
     sum_band     :     11.23s CPU     11.37s WALL (      42 calls)
     v_of_rho     :      0.19s CPU      0.20s WALL (      42 calls)
     newd         :      2.12s CPU      2.15s WALL (      42 calls)
     PAW_pot      :      2.15s CPU      2.26s WALL (      42 calls)
     mix_rho      :      0.12s CPU      0.12s WALL (      42 calls)

     Called by c_bands:
     init_us_2    :      1.13s CPU      1.14s WALL (    5185 calls)
     init_us_2:cp :      1.13s CPU      1.14s WALL (    5185 calls)
     cegterg      :     68.03s CPU     68.52s WALL (    2562 calls)

     Called by *egterg:
     cdiaghg      :      3.34s CPU      3.36s WALL (   12783 calls)
     h_psi        :     44.59s CPU     44.92s WALL (   12905 calls)
     s_psi        :      5.25s CPU      5.29s WALL (   12905 calls)
     g_psi        :      0.21s CPU      0.21s WALL (   10282 calls)

     Called by h_psi:
     h_psi:calbec :      5.86s CPU      5.91s WALL (   12905 calls)
     vloc_psi     :     33.46s CPU     33.69s WALL (   12905 calls)
     add_vuspsi   :      5.16s CPU      5.20s WALL (   12905 calls)

     General routines
     calbec       :      7.84s CPU      7.93s WALL (   15467 calls)
     fft          :      0.26s CPU      0.27s WALL (     463 calls)
     ffts         :      0.01s CPU      0.01s WALL (      42 calls)
     fftw         :     36.78s CPU     37.07s WALL (  295898 calls)

     Parallel routines

     PWSCF        :   1m28.62s CPU   1m29.50s WALL


   This run was terminated on:  10: 4:36  30Jan2023            

=------------------------------------------------------------------------------=
   JOB DONE.
=------------------------------------------------------------------------------=
