
     Program PWSCF v.7.1 starts on 30Jan2023 at 12:27:37 

     This program is part of the open-source Quantum ESPRESSO suite
     for quantum simulation of materials; please cite
         "P. Giannozzi et al., J. Phys.:Condens. Matter 21 395502 (2009);
         "P. Giannozzi et al., J. Phys.:Condens. Matter 29 465901 (2017);
         "P. Giannozzi et al., J. Chem. Phys. 152 154105 (2020);
          URL http://www.quantum-espresso.org", 
     in publications or presentations arising from this work. More details at
     http://www.quantum-espresso.org/quote

     Parallel version (MPI), running on    12 processors

     MPI processes distributed on     1 nodes
     93190 MiB available memory on the printing compute node when the environment starts

     Waiting for input...
     Reading input from standard input

     Current dimensions of program PWSCF are:
     Max number of different atomic species (ntypx) = 10
     Max number of k-points (npk) =  40000
     Max angular momentum in pseudopotentials (lmaxx) =  4

     File ./work/WSSe.update deleted, as requested

     File ./work/WSSe.bfgs deleted, as requested
     file W.pbe-spn-kjpaw_psl.1.0.0.UPF: wavefunction(s)  6S 5P 5D renormalized
     file S.pbe-n-kjpaw_psl.1.0.0.UPF: wavefunction(s)  3S 3P renormalized
     file Se.pbe-dn-kjpaw_psl.1.0.0.UPF: wavefunction(s)  4S 4P 3D renormalized
     Message from routine setup:
     using ibrav=0 with symmetry is DISCOURAGED, use correct ibrav instead

     R & G space division:  proc/nbgrp/npool/nimage =      12
     Subspace diagonalization in iterative solution of the eigenvalue problem:
     a serial algorithm will be used


     Parallelization info
     --------------------
     sticks:   dense  smooth     PW     G-vecs:    dense   smooth      PW
     Min          49      49     15                 7805     7805    1255
     Max          50      50     16                 7840     7840    1268
     Sum         595     595    187                93827    93827   15121

     Using Slab Decomposition



     bravais-lattice index     =            0
     lattice parameter (alat)  =       6.0471  a.u.
     unit-cell volume          =    1496.1227 (a.u.)^3
     number of atoms/cell      =            3
     number of atomic types    =            3
     number of electrons       =        36.00
     number of Kohn-Sham states=           18
     kinetic-energy cutoff     =      60.0000  Ry
     charge density cutoff     =     240.0000  Ry
     scf convergence threshold =      1.0E-08
     mixing beta               =       0.5000
     number of iterations used =            8  plain     mixing
     energy convergence thresh.=      1.0E-04
     force convergence thresh. =      1.0E-03
     press convergence thresh. =      5.0E-01
     Exchange-correlation= SLA  PW   PBX  PBC
                           (   1   4   3   4   0   0   0)
     nstep                     =           50


     celldm(1)=   6.047124  celldm(2)=   0.000000  celldm(3)=   0.000000
     celldm(4)=   0.000000  celldm(5)=   0.000000  celldm(6)=   0.000000

     crystal axes: (cart. coord. in units of alat)
               a(1) = (   1.000000   0.000000   0.000000 )  
               a(2) = (  -0.500000   0.866025   0.000000 )  
               a(3) = (   0.000000   0.000000   7.812500 )  

     reciprocal axes: (cart. coord. in units 2 pi/alat)
               b(1) = (  1.000000  0.577350 -0.000000 )  
               b(2) = (  0.000000  1.154701  0.000000 )  
               b(3) = (  0.000000 -0.000000  0.128000 )  


     PseudoPot. # 1 for W  read from file:
     /home/mainadmin/research/danu/pseudo/W.pbe-spn-kjpaw_psl.1.0.0.UPF
     MD5 check sum: 03c3df5b60893f488392c7401945500a
     Pseudo is Projector augmented-wave + core cor, Zval = 14.0
     Generated using &quot;atomic&quot; code by A. Dal Corso  v.6.2.2
     Shape of augmentation charge: PSQ
     Using radial grid of 1273 points,  6 beta functions with: 
                l(1) =   0
                l(2) =   0
                l(3) =   1
                l(4) =   1
                l(5) =   2
                l(6) =   2
     Q(r) pseudized with 0 coefficients 


     PseudoPot. # 2 for S  read from file:
     /home/mainadmin/research/danu/pseudo/S.pbe-n-kjpaw_psl.1.0.0.UPF
     MD5 check sum: fb45dfebcf3e72a4e1bd4a866ec2e262
     Pseudo is Projector augmented-wave + core cor, Zval =  6.0
     Generated using &quot;atomic&quot; code by A. Dal Corso  v.6.3
     Shape of augmentation charge: PSQ
     Using radial grid of 1151 points,  6 beta functions with: 
                l(1) =   0
                l(2) =   0
                l(3) =   1
                l(4) =   1
                l(5) =   2
                l(6) =   2
     Q(r) pseudized with 0 coefficients 


     PseudoPot. # 3 for Se read from file:
     /home/mainadmin/research/danu/pseudo/Se.pbe-dn-kjpaw_psl.1.0.0.UPF
     MD5 check sum: ac240dd2bae32a30e0bf3a38df9c8785
     Pseudo is Projector augmented-wave + core cor, Zval = 16.0
     Generated using &quot;atomic&quot; code by A. Dal Corso  v.6.3
     Shape of augmentation charge: PSQ
     Using radial grid of 1211 points,  6 beta functions with: 
                l(1) =   0
                l(2) =   0
                l(3) =   1
                l(4) =   1
                l(5) =   2
                l(6) =   2
     Q(r) pseudized with 0 coefficients 


     atomic species   valence    mass     pseudopotential
        W             14.00   183.84000     W ( 1.00)
        S              6.00    32.06500     S ( 1.00)
        Se            16.00    78.96000     Se( 1.00)

      6 Sym. Ops. (no inversion) found



   Cartesian axes

     site n.     atom                  positions (alat units)
         1           Se  tau(   1) = (   0.5000000   0.2886751   4.5312500  )
         2           W   tau(   2) = (  -0.0000000   0.5773503   3.9062500  )
         3           S   tau(   3) = (   0.5000000   0.2886751  -4.5312500  )

     number of k points=    19
                       cart. coord. in units 2pi/alat
        k(    1) = (   0.0000000   0.0000000   0.0000000), wk =   0.0138889
        k(    2) = (   0.0000000   0.0962250   0.0000000), wk =   0.0833333
        k(    3) = (   0.0000000   0.1924501   0.0000000), wk =   0.0833333
        k(    4) = (   0.0000000   0.2886751   0.0000000), wk =   0.0833333
        k(    5) = (   0.0000000   0.3849002   0.0000000), wk =   0.0833333
        k(    6) = (   0.0000000   0.4811252   0.0000000), wk =   0.0833333
        k(    7) = (   0.0000000  -0.5773503   0.0000000), wk =   0.0416667
        k(    8) = (   0.0833333   0.1443376   0.0000000), wk =   0.0833333
        k(    9) = (   0.0833333   0.2405626   0.0000000), wk =   0.1666667
        k(   10) = (   0.0833333   0.3367877   0.0000000), wk =   0.1666667
        k(   11) = (   0.0833333   0.4330127   0.0000000), wk =   0.1666667
        k(   12) = (   0.0833333   0.5292377   0.0000000), wk =   0.1666667
        k(   13) = (   0.1666667   0.2886751   0.0000000), wk =   0.0833333
        k(   14) = (   0.1666667   0.3849002   0.0000000), wk =   0.1666667
        k(   15) = (   0.1666667   0.4811252   0.0000000), wk =   0.1666667
        k(   16) = (   0.1666667   0.5773503   0.0000000), wk =   0.0833333
        k(   17) = (   0.2500000   0.4330127   0.0000000), wk =   0.0833333
        k(   18) = (   0.2500000   0.5292377   0.0000000), wk =   0.1666667
        k(   19) = (   0.3333333   0.5773503   0.0000000), wk =   0.0277778

     Dense  grid:    93827 G-vectors     FFT dimensions: (  30,  30, 240)

     Estimated max dynamical RAM per process >      42.61 MB

     Estimated total dynamical RAM >     511.35 MB

     Check: negative core charge=   -0.000001

     Initial potential from superposition of free atoms

     starting charge      35.9993, renormalised to      36.0000

     negative rho (up, down):  5.774E-04 0.000E+00
     Starting wfcs are   26 randomized atomic wfcs
     Checking if some PAW data can be deallocated... 

     total cpu time spent up to now is        4.5 secs

     Self-consistent Calculation

     iteration #  1     ecut=    60.00 Ry     beta= 0.50
     Davidson diagonalization with overlap
     ethr =  1.00E-02,  avg # of iterations =  2.0

     Threshold (ethr) on eigenvalues was too large:
     Diagonalizing with lowered threshold

     Davidson diagonalization with overlap
     ethr =  4.60E-04,  avg # of iterations =  2.1

     negative rho (up, down):  1.106E-03 0.000E+00

     total cpu time spent up to now is       11.5 secs

     total energy              =   -1228.30601751 Ry
     estimated scf accuracy    <       0.16835489 Ry

     iteration #  2     ecut=    60.00 Ry     beta= 0.50
     Davidson diagonalization with overlap
     ethr =  4.68E-04,  avg # of iterations =  8.1

     negative rho (up, down):  1.404E-03 0.000E+00

     total cpu time spent up to now is       17.2 secs

     total energy              =   -1228.07556058 Ry
     estimated scf accuracy    <       4.13876472 Ry

     iteration #  3     ecut=    60.00 Ry     beta= 0.50
     Davidson diagonalization with overlap
     ethr =  4.68E-04,  avg # of iterations =  7.6

     negative rho (up, down):  4.310E-03 0.000E+00

     total cpu time spent up to now is       22.6 secs

     total energy              =   -1228.37224973 Ry
     estimated scf accuracy    <       0.04421666 Ry

     iteration #  4     ecut=    60.00 Ry     beta= 0.50
     Davidson diagonalization with overlap
     ethr =  1.23E-04,  avg # of iterations =  4.8

     negative rho (up, down):  8.003E-03 0.000E+00

     total cpu time spent up to now is       27.1 secs

     total energy              =   -1228.37533030 Ry
     estimated scf accuracy    <       0.10314325 Ry

     iteration #  5     ecut=    60.00 Ry     beta= 0.50
     Davidson diagonalization with overlap
     ethr =  1.23E-04,  avg # of iterations =  3.8

     negative rho (up, down):  1.554E-02 0.000E+00

     total cpu time spent up to now is       31.2 secs

     total energy              =   -1228.38608923 Ry
     estimated scf accuracy    <       0.01794575 Ry

     iteration #  6     ecut=    60.00 Ry     beta= 0.50
     Davidson diagonalization with overlap
     ethr =  4.98E-05,  avg # of iterations =  2.8

     negative rho (up, down):  3.911E-03 0.000E+00

     total cpu time spent up to now is       35.0 secs

     total energy              =   -1228.36867326 Ry
     estimated scf accuracy    <       0.01978152 Ry

     iteration #  7     ecut=    60.00 Ry     beta= 0.50
     Davidson diagonalization with overlap
     ethr =  4.98E-05,  avg # of iterations =  4.7

     negative rho (up, down):  6.865E-03 0.000E+00

     total cpu time spent up to now is       39.6 secs

     total energy              =   -1228.38145122 Ry
     estimated scf accuracy    <       0.01945390 Ry

     iteration #  8     ecut=    60.00 Ry     beta= 0.50
     Davidson diagonalization with overlap
     ethr =  4.98E-05,  avg # of iterations =  2.0

     negative rho (up, down):  1.880E-03 0.000E+00

     total cpu time spent up to now is       43.1 secs

     total energy              =   -1228.37759986 Ry
     estimated scf accuracy    <       0.01642219 Ry

     iteration #  9     ecut=    60.00 Ry     beta= 0.50
     Davidson diagonalization with overlap
     ethr =  4.56E-05,  avg # of iterations =  2.0

     negative rho (up, down):  8.209E-04 0.000E+00

     total cpu time spent up to now is       46.7 secs

     total energy              =   -1228.37824564 Ry
     estimated scf accuracy    <       0.00680135 Ry

     iteration # 10     ecut=    60.00 Ry     beta= 0.50
     Davidson diagonalization with overlap
     ethr =  1.89E-05,  avg # of iterations =  3.9

     negative rho (up, down):  7.583E-04 0.000E+00

     total cpu time spent up to now is       49.1 secs

     total energy              =   -1228.37919914 Ry
     estimated scf accuracy    <       0.00053000 Ry

     iteration # 11     ecut=    60.00 Ry     beta= 0.50
     Davidson diagonalization with overlap
     ethr =  1.47E-06,  avg # of iterations =  4.9

     negative rho (up, down):  7.767E-04 0.000E+00

     total cpu time spent up to now is       53.2 secs

     total energy              =   -1228.37919078 Ry
     estimated scf accuracy    <       0.00054753 Ry

     iteration # 12     ecut=    60.00 Ry     beta= 0.50
     Davidson diagonalization with overlap
     ethr =  1.47E-06,  avg # of iterations =  3.4

     negative rho (up, down):  7.532E-04 0.000E+00

     total cpu time spent up to now is       57.1 secs

     total energy              =   -1228.37927976 Ry
     estimated scf accuracy    <       0.00005314 Ry

     iteration # 13     ecut=    60.00 Ry     beta= 0.50
     Davidson diagonalization with overlap
     ethr =  1.48E-07,  avg # of iterations =  5.3

     negative rho (up, down):  7.422E-04 0.000E+00

     total cpu time spent up to now is       60.9 secs

     total energy              =   -1228.37925413 Ry
     estimated scf accuracy    <       0.00018038 Ry

     iteration # 14     ecut=    60.00 Ry     beta= 0.50
     Davidson diagonalization with overlap
     ethr =  1.48E-07,  avg # of iterations =  5.1

     negative rho (up, down):  7.451E-04 0.000E+00

     total cpu time spent up to now is       64.8 secs

     total energy              =   -1228.37927897 Ry
     estimated scf accuracy    <       0.00001065 Ry

     iteration # 15     ecut=    60.00 Ry     beta= 0.50
     Davidson diagonalization with overlap
     ethr =  2.96E-08,  avg # of iterations =  3.5

     negative rho (up, down):  7.469E-04 0.000E+00

     total cpu time spent up to now is       68.5 secs

     total energy              =   -1228.37927683 Ry
     estimated scf accuracy    <       0.00002125 Ry

     iteration # 16     ecut=    60.00 Ry     beta= 0.50
     Davidson diagonalization with overlap
     ethr =  2.96E-08,  avg # of iterations =  3.4

     negative rho (up, down):  7.473E-04 0.000E+00

     total cpu time spent up to now is       72.2 secs

     total energy              =   -1228.37927687 Ry
     estimated scf accuracy    <       0.00000716 Ry

     iteration # 17     ecut=    60.00 Ry     beta= 0.50
     Davidson diagonalization with overlap
     ethr =  1.99E-08,  avg # of iterations =  3.2

     negative rho (up, down):  7.459E-04 0.000E+00

     total cpu time spent up to now is       75.6 secs

     total energy              =   -1228.37927761 Ry
     estimated scf accuracy    <       0.00000043 Ry

     iteration # 18     ecut=    60.00 Ry     beta= 0.50
     Davidson diagonalization with overlap
     ethr =  1.19E-09,  avg # of iterations =  5.5

     negative rho (up, down):  7.454E-04 0.000E+00

     total cpu time spent up to now is       79.9 secs

     total energy              =   -1228.37927774 Ry
     estimated scf accuracy    <       0.00000023 Ry

     iteration # 19     ecut=    60.00 Ry     beta= 0.50
     Davidson diagonalization with overlap
     ethr =  6.45E-10,  avg # of iterations =  1.2

     negative rho (up, down):  7.467E-04 0.000E+00

     total cpu time spent up to now is       82.9 secs

     total energy              =   -1228.37927770 Ry
     estimated scf accuracy    <       0.00000023 Ry

     iteration # 20     ecut=    60.00 Ry     beta= 0.50
     Davidson diagonalization with overlap
     ethr =  6.38E-10,  avg # of iterations =  2.4

     negative rho (up, down):  7.464E-04 0.000E+00

     total cpu time spent up to now is       86.5 secs

     total energy              =   -1228.37927770 Ry
     estimated scf accuracy    <       0.00000006 Ry

     iteration # 21     ecut=    60.00 Ry     beta= 0.50
     Davidson diagonalization with overlap
     ethr =  1.60E-10,  avg # of iterations =  5.5

     negative rho (up, down):  7.465E-04 0.000E+00

     total cpu time spent up to now is       91.2 secs

     total energy              =   -1228.37927771 Ry
     estimated scf accuracy    <       0.00000007 Ry

     iteration # 22     ecut=    60.00 Ry     beta= 0.50
     Davidson diagonalization with overlap
     ethr =  1.60E-10,  avg # of iterations =  3.5

     negative rho (up, down):  7.466E-04 0.000E+00

     total cpu time spent up to now is       95.1 secs

     total energy              =   -1228.37927771 Ry
     estimated scf accuracy    <       0.00000002 Ry

     iteration # 23     ecut=    60.00 Ry     beta= 0.50
     Davidson diagonalization with overlap
     ethr =  4.89E-11,  avg # of iterations =  5.5

     negative rho (up, down):  7.465E-04 0.000E+00

     total cpu time spent up to now is       99.7 secs

     total energy              =   -1228.37927772 Ry
     estimated scf accuracy    <       0.00000003 Ry

     iteration # 24     ecut=    60.00 Ry     beta= 0.50
     Davidson diagonalization with overlap
     ethr =  4.89E-11,  avg # of iterations =  1.8

     negative rho (up, down):  7.465E-04 0.000E+00

     total cpu time spent up to now is      103.0 secs

     total energy              =   -1228.37927772 Ry
     estimated scf accuracy    <       0.00000002 Ry

     iteration # 25     ecut=    60.00 Ry     beta= 0.50
     Davidson diagonalization with overlap
     ethr =  4.68E-11,  avg # of iterations =  2.7

     negative rho (up, down):  7.465E-04 0.000E+00

     total cpu time spent up to now is      106.4 secs

     End of self-consistent calculation

          k = 0.0000 0.0000 0.0000 ( 11811 PWs)   bands (ev):

   -75.2383 -48.4206 -48.4206 -48.4172 -48.4158 -48.4158 -39.4089 -39.1504
   -39.1504 -14.9931 -13.8031  -6.8568  -3.7196  -2.1970  -1.8502  -1.8502
    -0.7804  -0.7804

          k = 0.0000 0.0962 0.0000 ( 11801 PWs)   bands (ev):

   -75.2373 -48.4207 -48.4203 -48.4170 -48.4159 -48.4158 -39.4061 -39.1685
   -39.1548 -14.8944 -13.7268  -6.7023  -3.7427  -2.1655  -2.1275  -1.7393
    -1.0375  -0.9537

          k = 0.0000 0.1925 0.0000 ( 11789 PWs)   bands (ev):

   -75.2348 -48.4208 -48.4193 -48.4165 -48.4162 -48.4158 -39.3986 -39.2178
   -39.1667 -14.6095 -13.5066  -6.2706  -3.8281  -2.9521  -2.0271  -1.8006
    -1.4494  -1.3540

          k = 0.0000 0.2887 0.0000 ( 11777 PWs)   bands (ev):

   -75.2314 -48.4210 -48.4181 -48.4169 -48.4156 -48.4154 -39.3882 -39.2844
   -39.1830 -14.1752 -13.1719  -5.6841  -4.1600  -3.8850  -2.7586  -2.0499
    -1.8014  -1.1197

          k = 0.0000 0.3849 0.0000 ( 11771 PWs)   bands (ev):

   -75.2279 -48.4213 -48.4174 -48.4174 -48.4150 -48.4143 -39.3779 -39.3503
   -39.1992 -13.6675 -12.7821  -5.4794  -4.8974  -4.4188  -3.3042  -2.1826
    -2.1759  -0.9523

          k = 0.0000 0.4811 0.0000 ( 11733 PWs)   bands (ev):

   -75.2254 -48.4215 -48.4178 -48.4172 -48.4141 -48.4134 -39.3982 -39.3703
   -39.2110 -13.2258 -12.4424  -6.2094  -5.2659  -4.4772  -3.4671  -2.4194
    -2.0905  -0.9453

          k = 0.0000-0.5774 0.0000 ( 11704 PWs)   bands (ev):

   -75.2245 -48.4216 -48.4179 -48.4171 -48.4137 -48.4131 -39.4156 -39.3675
   -39.2153 -13.0431 -12.3003  -6.5429  -5.4926  -4.4315  -3.5023  -2.5035
    -1.9683  -0.9617

          k = 0.0833 0.1443 0.0000 ( 11799 PWs)   bands (ev):

   -75.2356 -48.4207 -48.4197 -48.4166 -48.4162 -48.4158 -39.4010 -39.2013
   -39.1639 -14.7025 -13.5784  -6.4075  -3.7911  -2.6949  -2.0440  -1.5972
    -1.5532  -1.2017

          k = 0.0833 0.2406 0.0000 ( 11778 PWs)   bands (ev):

   -75.2326 -48.4207 -48.4187 -48.4166 -48.4160 -48.4154 -39.3920 -39.2569
   -39.1803 -14.3418 -13.3000  -5.8811  -3.9163  -3.5628  -2.5218  -2.0172
    -1.6041  -1.2956

          k = 0.0833 0.3368 0.0000 ( 11775 PWs)   bands (ev):

   -75.2292 -48.4209 -48.4178 -48.4171 -48.4157 -48.4145 -39.3817 -39.3203
   -39.1994 -13.8665 -12.9340  -5.3339  -4.6145  -4.1521  -3.2883  -2.2245
    -2.0405  -1.1182

          k = 0.0833 0.4330 0.0000 ( 11746 PWs)   bands (ev):

   -75.2262 -48.4211 -48.4176 -48.4173 -48.4149 -48.4136 -39.3751 -39.3723
   -39.2158 -13.3803 -12.5601  -5.7701  -4.9808  -4.4867  -3.5034  -2.4848
    -2.2787  -1.1309

          k = 0.0833 0.5292 0.0000 ( 11686 PWs)   bands (ev):

   -75.2245 -48.4212 -48.4178 -48.4172 -48.4140 -48.4132 -39.4059 -39.3675
   -39.2253 -13.0533 -12.3064  -6.3642  -5.3720  -4.3889  -3.5061  -2.7150
    -2.2053  -1.1569

          k = 0.1667 0.2887 0.0000 ( 11767 PWs)   bands (ev):

   -75.2297 -48.4205 -48.4182 -48.4169 -48.4161 -48.4145 -39.3831 -39.3049
   -39.2038 -13.9370 -12.9876  -5.3204  -4.3766  -3.9655  -3.4208  -2.2701
    -1.9734  -1.2290

          k = 0.1667 0.3849 0.0000 ( 11741 PWs)   bands (ev):

   -75.2267 -48.4203 -48.4178 -48.4172 -48.4158 -48.4136 -39.3741 -39.3501
   -39.2298 -13.4707 -12.6275  -5.2373  -4.7395  -4.3773  -3.8194  -2.7071
    -2.4253  -1.2939

          k = 0.1667 0.4811 0.0000 ( 11711 PWs)   bands (ev):

   -75.2245 -48.4203 -48.4176 -48.4174 -48.4150 -48.4132 -39.3822 -39.3675
   -39.2496 -13.0733 -12.3184  -5.9052  -5.0522  -4.3266  -3.7042  -3.0609
    -2.7967  -1.2752

          k = 0.1667 0.5774 0.0000 ( 11682 PWs)   bands (ev):

   -75.2237 -48.4203 -48.4175 -48.4175 -48.4144 -48.4133 -39.3937 -39.3651
   -39.2570 -12.9120 -12.1911  -6.1779  -5.2726  -4.2538  -3.5319  -3.3020
    -2.9075  -1.2065

          k = 0.2500 0.4330 0.0000 ( 11731 PWs)   bands (ev):

   -75.2245 -48.4197 -48.4178 -48.4171 -48.4157 -48.4133 -39.3679 -39.3658
   -39.2659 -13.0832 -12.3242  -5.5588  -4.8000  -4.3409  -4.0016  -3.3513
    -2.9302  -1.2697

          k = 0.2500 0.5292 0.0000 ( 11689 PWs)   bands (ev):

   -75.2232 -48.4193 -48.4179 -48.4169 -48.4153 -48.4135 -39.3689 -39.3637
   -39.2933 -12.8350 -12.1267  -5.7518  -5.0966  -4.2219  -3.9383  -3.6807
    -3.3595  -1.0716

          k = 0.3333 0.5774 0.0000 ( 11694 PWs)   bands (ev):

   -75.2228 -48.4187 -48.4183 -48.4160 -48.4159 -48.4137 -39.3624 -39.3410
   -39.3324 -12.7447 -12.0532  -5.3721  -5.3366  -4.3857  -3.9886  -3.9145
    -3.5117  -0.9046

     highest occupied level (ev):    -0.7804

!    total energy              =   -1228.37927771 Ry
     total all-electron energy =    -37944.469708 Ry
     estimated scf accuracy    <          5.5E-09 Ry

     The total energy is the sum of the following terms:
     one-electron contribution =   -2749.50684194 Ry
     hartree contribution      =    1372.31508558 Ry
     xc contribution           =     -73.23290035 Ry
     ewald contribution        =    1014.62638954 Ry
     one-center paw contrib.   =    -792.58101055 Ry

     convergence has been achieved in  25 iterations

     negative rho (up, down):  7.465E-04 0.000E+00

     Forces acting on atoms (cartesian axes, Ry/au):

     atom    1 type  3   force =     0.00000000    0.00000000   -0.12900200
     atom    2 type  1   force =     0.00000000    0.00000000   -0.05042820
     atom    3 type  2   force =     0.00000000    0.00000000    0.17943020

     Total force =     0.226671     Total SCF correction =     0.000387


     Computing stress (Cartesian axis) and pressure


     negative rho (up, down):  7.465E-04 0.000E+00
          total   stress  (Ry/bohr**3)                   (kbar)     P=      -52.75
  -0.00014449   0.00000000   0.00000000          -21.25        0.00        0.00
   0.00000000  -0.00014449   0.00000000            0.00      -21.25        0.00
   0.00000000   0.00000000  -0.00078673            0.00        0.00     -115.73


     BFGS Geometry Optimization
     Energy error            =      0.0E+00 Ry
     Gradient error          =      1.8E-01 Ry/Bohr
     Cell gradient error     =      2.1E+01 kbar

     number of scf cycles    =   1
     number of bfgs steps    =   0

     enthalpy           new  =   -1228.3792777113 Ry

     new trust radius        =       0.1794301965 bohr
     new conv_thr            =       0.0000000100 Ry

     new unit-cell volume =   1485.33379 a.u.^3 (   220.10376 Ang^3 )
     density =      2.22456 g/cm^3

CELL_PARAMETERS (angstrom)
   3.188441182   0.000000000   0.000000000
  -1.594220591   2.761271062   0.000000000
   0.000000000   0.000000000  25.000000000

ATOMIC_POSITIONS (crystal)
Se            0.6666666667        0.3333333333        0.5772694033
W             0.3333333333        0.6666666667        0.4989325819
S             0.6666666667        0.3333333333       -0.5762019852



     Writing config-only to output data dir ./work/WSSe.save/
     NEW-OLD atomic charge density approx. for the potential

     Check: negative core charge=   -0.000001

     negative rho (up, down):  8.411E-04 0.000E+00
     extrapolated charge   35.73852, renormalised to   36.00000

     total cpu time spent up to now is      116.6 secs

     Self-consistent Calculation

     iteration #  1     ecut=    60.00 Ry     beta= 0.50
     Davidson diagonalization with overlap
     c_bands:  1 eigenvalues not converged
     ethr =  1.00E-06,  avg # of iterations = 16.7

     negative rho (up, down):  4.708E-01 0.000E+00

     total cpu time spent up to now is      156.3 secs

     total energy              =   -1226.95416916 Ry
     estimated scf accuracy    <       4.79290544 Ry

     iteration #  2     ecut=    60.00 Ry     beta= 0.50
     Davidson diagonalization with overlap
     ethr =  1.00E-02,  avg # of iterations = 11.0

     negative rho (up, down):  4.383E-01 0.000E+00

     total cpu time spent up to now is      172.7 secs

     total energy              =   -1219.57187684 Ry
     estimated scf accuracy    <     145.98477992 Ry

     iteration #  3     ecut=    60.00 Ry     beta= 0.50
     Davidson diagonalization with overlap
     ethr =  1.00E-02,  avg # of iterations =  8.3

     negative rho (up, down):  5.609E-01 0.000E+00

     total cpu time spent up to now is      187.6 secs

     total energy              =   -1228.31300559 Ry
     estimated scf accuracy    <       2.62896307 Ry

     iteration #  4     ecut=    60.00 Ry     beta= 0.50
     Davidson diagonalization with overlap
     ethr =  7.30E-03,  avg # of iterations =  7.4

     negative rho (up, down):  2.309E-01 0.000E+00

     total cpu time spent up to now is      204.7 secs

     total energy              =   -1189.09124421 Ry
     estimated scf accuracy    <    2328.97167111 Ry

     iteration #  5     ecut=    60.00 Ry     beta= 0.50
     Davidson diagonalization with overlap
     ethr =  7.30E-03,  avg # of iterations =  7.2

     negative rho (up, down):  2.469E-01 0.000E+00

     total cpu time spent up to now is      218.2 secs

     total energy              =   -1228.29613215 Ry
     estimated scf accuracy    <       1.88967550 Ry

     iteration #  6     ecut=    60.00 Ry     beta= 0.50
     Davidson diagonalization with overlap
     ethr =  5.25E-03,  avg # of iterations =  2.4

     negative rho (up, down):  2.595E-01 0.000E+00

     total cpu time spent up to now is      228.0 secs

     total energy              =   -1228.48094607 Ry
     estimated scf accuracy    <       0.56689372 Ry

     iteration #  7     ecut=    60.00 Ry     beta= 0.50
     Davidson diagonalization with overlap
     ethr =  1.57E-03,  avg # of iterations =  5.5

     negative rho (up, down):  2.271E-01 0.000E+00

     total cpu time spent up to now is      239.0 secs

     total energy              =   -1228.42856268 Ry
     estimated scf accuracy    <       0.87621859 Ry

     iteration #  8     ecut=    60.00 Ry     beta= 0.50
     Davidson diagonalization with overlap
     ethr =  1.57E-03,  avg # of iterations =  4.1

     negative rho (up, down):  2.345E-01 0.000E+00

     total cpu time spent up to now is      250.1 secs

     total energy              =   -1228.54320545 Ry
     estimated scf accuracy    <       0.84020367 Ry

     iteration #  9     ecut=    60.00 Ry     beta= 0.50
     Davidson diagonalization with overlap
     ethr =  1.57E-03,  avg # of iterations =  2.0

     negative rho (up, down):  2.449E-01 0.000E+00

     total cpu time spent up to now is      259.2 secs

     total energy              =   -1228.55784066 Ry
     estimated scf accuracy    <       1.05211002 Ry

     iteration # 10     ecut=    60.00 Ry     beta= 0.50
     Davidson diagonalization with overlap
     ethr =  1.57E-03,  avg # of iterations =  3.6

     negative rho (up, down):  2.635E-01 0.000E+00

     total cpu time spent up to now is      262.8 secs

     total energy              =   -1228.70717031 Ry
     estimated scf accuracy    <       3.48652835 Ry

     iteration # 11     ecut=    60.00 Ry     beta= 0.50
     Davidson diagonalization with overlap
     ethr =  1.57E-03,  avg # of iterations =  4.3

     negative rho (up, down):  2.526E-01 0.000E+00

     total cpu time spent up to now is      264.8 secs

     total energy              =   -1228.34607464 Ry
     estimated scf accuracy    <      24.07120351 Ry

     iteration # 12     ecut=    60.00 Ry     beta= 0.50
     Davidson diagonalization with overlap
     ethr =  1.57E-03,  avg # of iterations =  3.7

     negative rho (up, down):  2.913E-01 0.000E+00

     total cpu time spent up to now is      269.9 secs

     total energy              =   -1228.64474052 Ry
     estimated scf accuracy    <       1.92231881 Ry

     iteration # 13     ecut=    60.00 Ry     beta= 0.50
     Davidson diagonalization with overlap
     ethr =  1.57E-03,  avg # of iterations =  3.2

     negative rho (up, down):  3.040E-01 0.000E+00

     total cpu time spent up to now is      273.9 secs

     total energy              =   -1228.77123277 Ry
     estimated scf accuracy    <      10.44239898 Ry

     iteration # 14     ecut=    60.00 Ry     beta= 0.50
     Davidson diagonalization with overlap
     ethr =  1.57E-03,  avg # of iterations =  4.5

     negative rho (up, down):  3.029E-01 0.000E+00

     total cpu time spent up to now is      277.3 secs

     total energy              =   -1228.76370418 Ry
     estimated scf accuracy    <      49.28930740 Ry

     iteration # 15     ecut=    60.00 Ry     beta= 0.50
     Davidson diagonalization with overlap
     ethr =  1.57E-03,  avg # of iterations =  1.7

     negative rho (up, down):  2.728E-01 0.000E+00

     total cpu time spent up to now is      281.1 secs

     total energy              =   -1228.68758887 Ry
     estimated scf accuracy    <      36.02155225 Ry

     iteration # 16     ecut=    60.00 Ry     beta= 0.50
     Davidson diagonalization with overlap
     ethr =  1.57E-03,  avg # of iterations =  3.6

     negative rho (up, down):  1.851E-01 0.000E+00

     total cpu time spent up to now is      285.3 secs

     total energy              =   -1227.91851156 Ry
     estimated scf accuracy    <      28.38713249 Ry

     iteration # 17     ecut=    60.00 Ry     beta= 0.50
     Davidson diagonalization with overlap
     ethr =  1.57E-03,  avg # of iterations =  4.5

     negative rho (up, down):  2.022E-01 0.000E+00

     total cpu time spent up to now is      290.1 secs

     total energy              =   -1228.47613807 Ry
     estimated scf accuracy    <       0.53717904 Ry

     iteration # 18     ecut=    60.00 Ry     beta= 0.50
     Davidson diagonalization with overlap
     ethr =  1.49E-03,  avg # of iterations =  1.0

     negative rho (up, down):  2.076E-01 0.000E+00

     total cpu time spent up to now is      292.4 secs

     total energy              =   -1228.43082148 Ry
     estimated scf accuracy    <       0.49611447 Ry

     iteration # 19     ecut=    60.00 Ry     beta= 0.50
     Davidson diagonalization with overlap
     ethr =  1.38E-03,  avg # of iterations =  2.3

     negative rho (up, down):  1.982E-01 0.000E+00

     total cpu time spent up to now is      294.4 secs

     total energy              =   -1228.45740468 Ry
     estimated scf accuracy    <       0.29976526 Ry

     iteration # 20     ecut=    60.00 Ry     beta= 0.50
     Davidson diagonalization with overlap
     ethr =  8.33E-04,  avg # of iterations =  1.0

     negative rho (up, down):  1.990E-01 0.000E+00

     total cpu time spent up to now is      296.1 secs

     total energy              =   -1228.46114425 Ry
     estimated scf accuracy    <       0.26520629 Ry

     iteration # 21     ecut=    60.00 Ry     beta= 0.50
     Davidson diagonalization with overlap
     ethr =  7.37E-04,  avg # of iterations =  1.0

     negative rho (up, down):  1.956E-01 0.000E+00

     total cpu time spent up to now is      297.8 secs

     total energy              =   -1228.45856637 Ry
     estimated scf accuracy    <       0.27238407 Ry

     iteration # 22     ecut=    60.00 Ry     beta= 0.50
     Davidson diagonalization with overlap
     ethr =  7.37E-04,  avg # of iterations =  1.0

     negative rho (up, down):  1.939E-01 0.000E+00

     total cpu time spent up to now is      300.2 secs

     total energy              =   -1228.45772653 Ry
     estimated scf accuracy    <       0.25420534 Ry

     iteration # 23     ecut=    60.00 Ry     beta= 0.50
     Davidson diagonalization with overlap
     ethr =  7.06E-04,  avg # of iterations =  1.0

     negative rho (up, down):  1.939E-01 0.000E+00

     total cpu time spent up to now is      303.4 secs

     total energy              =   -1228.45857521 Ry
     estimated scf accuracy    <       0.25336857 Ry

     iteration # 24     ecut=    60.00 Ry     beta= 0.50
     Davidson diagonalization with overlap
     ethr =  7.04E-04,  avg # of iterations =  1.0

     negative rho (up, down):  1.937E-01 0.000E+00

     total cpu time spent up to now is      307.2 secs

     total energy              =   -1228.45954635 Ry
     estimated scf accuracy    <       0.25391055 Ry

     iteration # 25     ecut=    60.00 Ry     beta= 0.50
     Davidson diagonalization with overlap
     ethr =  7.04E-04,  avg # of iterations =  1.0

     negative rho (up, down):  2.045E-01 0.000E+00

     total cpu time spent up to now is      310.6 secs

     total energy              =   -1228.41971318 Ry
     estimated scf accuracy    <       0.25610298 Ry

     iteration # 26     ecut=    60.00 Ry     beta= 0.50
     Davidson diagonalization with overlap
     ethr =  7.04E-04,  avg # of iterations =  2.8

     negative rho (up, down):  2.086E-01 0.000E+00

     total cpu time spent up to now is      312.2 secs

     total energy              =   -1228.48251547 Ry
     estimated scf accuracy    <       0.25364649 Ry

     iteration # 27     ecut=    60.00 Ry     beta= 0.50
     Davidson diagonalization with overlap
     ethr =  7.04E-04,  avg # of iterations =  1.0

     negative rho (up, down):  1.855E-01 0.000E+00

     total cpu time spent up to now is      314.3 secs

     total energy              =   -1228.46875380 Ry
     estimated scf accuracy    <       0.28546251 Ry

     iteration # 28     ecut=    60.00 Ry     beta= 0.50
     Davidson diagonalization with overlap
     ethr =  7.04E-04,  avg # of iterations =  1.0

     negative rho (up, down):  1.278E-01 0.000E+00

     total cpu time spent up to now is      317.7 secs

     total energy              =   -1228.41620814 Ry
     estimated scf accuracy    <       0.23034306 Ry

     iteration # 29     ecut=    60.00 Ry     beta= 0.50
     Davidson diagonalization with overlap
     ethr =  6.40E-04,  avg # of iterations =  2.3

     negative rho (up, down):  7.994E-02 0.000E+00

     total cpu time spent up to now is      320.2 secs

     total energy              =   -1228.40900125 Ry
     estimated scf accuracy    <       0.10853918 Ry

     iteration # 30     ecut=    60.00 Ry     beta= 0.50
     Davidson diagonalization with overlap
     ethr =  3.01E-04,  avg # of iterations =  4.7

     negative rho (up, down):  7.918E-02 0.000E+00

     total cpu time spent up to now is      327.1 secs

     total energy              =   -1228.40187918 Ry
     estimated scf accuracy    <       0.15079405 Ry

     iteration # 31     ecut=    60.00 Ry     beta= 0.50
     Davidson diagonalization with overlap
     ethr =  3.01E-04,  avg # of iterations =  4.1

     negative rho (up, down):  4.834E-02 0.000E+00

     total cpu time spent up to now is      333.1 secs

     total energy              =   -1228.43754566 Ry
     estimated scf accuracy    <       0.08894408 Ry

     iteration # 32     ecut=    60.00 Ry     beta= 0.50
     Davidson diagonalization with overlap
     ethr =  2.47E-04,  avg # of iterations =  5.4

     negative rho (up, down):  3.843E-02 0.000E+00

     total cpu time spent up to now is      340.0 secs

     total energy              =   -1228.46389306 Ry
     estimated scf accuracy    <       0.48962620 Ry

     iteration # 33     ecut=    60.00 Ry     beta= 0.50
     Davidson diagonalization with overlap
     ethr =  2.47E-04,  avg # of iterations =  2.4

     negative rho (up, down):  4.765E-02 0.000E+00

     total cpu time spent up to now is      346.2 secs

     total energy              =   -1228.46423567 Ry
     estimated scf accuracy    <       0.41397193 Ry

     iteration # 34     ecut=    60.00 Ry     beta= 0.50
     Davidson diagonalization with overlap
     ethr =  2.47E-04,  avg # of iterations =  1.3

     negative rho (up, down):  3.194E-02 0.000E+00

     total cpu time spent up to now is      350.9 secs

     total energy              =   -1228.44577256 Ry
     estimated scf accuracy    <       0.42650460 Ry

     iteration # 35     ecut=    60.00 Ry     beta= 0.50
     Davidson diagonalization with overlap
     ethr =  2.47E-04,  avg # of iterations =  2.6

     negative rho (up, down):  1.671E-02 0.000E+00

     total cpu time spent up to now is      356.1 secs

     total energy              =   -1228.42432581 Ry
     estimated scf accuracy    <       0.27210748 Ry

     iteration # 36     ecut=    60.00 Ry     beta= 0.50
     Davidson diagonalization with overlap
     ethr =  2.47E-04,  avg # of iterations =  6.0

     negative rho (up, down):  8.813E-03 0.000E+00

     total cpu time spent up to now is      362.4 secs

     total energy              =   -1228.40861695 Ry
     estimated scf accuracy    <       0.22554071 Ry

     iteration # 37     ecut=    60.00 Ry     beta= 0.50
     Davidson diagonalization with overlap
     ethr =  2.47E-04,  avg # of iterations =  4.2

     negative rho (up, down):  5.730E-03 0.000E+00

     total cpu time spent up to now is      370.2 secs

     total energy              =   -1228.42538665 Ry
     estimated scf accuracy    <       0.02166482 Ry

     iteration # 38     ecut=    60.00 Ry     beta= 0.50
     Davidson diagonalization with overlap
     ethr =  6.02E-05,  avg # of iterations =  4.2

     negative rho (up, down):  4.386E-03 0.000E+00

     total cpu time spent up to now is      379.6 secs

     total energy              =   -1228.42884752 Ry
     estimated scf accuracy    <       0.00614431 Ry

     iteration # 39     ecut=    60.00 Ry     beta= 0.50
     Davidson diagonalization with overlap
     ethr =  1.71E-05,  avg # of iterations =  4.5

     negative rho (up, down):  4.063E-03 0.000E+00

     total cpu time spent up to now is      387.6 secs

     total energy              =   -1228.42989686 Ry
     estimated scf accuracy    <       0.00312483 Ry

     iteration # 40     ecut=    60.00 Ry     beta= 0.50
     Davidson diagonalization with overlap
     ethr =  8.68E-06,  avg # of iterations =  1.9

     negative rho (up, down):  2.398E-03 0.000E+00

     total cpu time spent up to now is      396.2 secs

     total energy              =   -1228.42961876 Ry
     estimated scf accuracy    <       0.00437320 Ry

     iteration # 41     ecut=    60.00 Ry     beta= 0.50
     Davidson diagonalization with overlap
     ethr =  8.68E-06,  avg # of iterations =  2.9

     negative rho (up, down):  5.735E-03 0.000E+00

     total cpu time spent up to now is      405.4 secs

     total energy              =   -1228.42940233 Ry
     estimated scf accuracy    <       0.00854845 Ry

     iteration # 42     ecut=    60.00 Ry     beta= 0.50
     Davidson diagonalization with overlap
     ethr =  8.68E-06,  avg # of iterations =  3.1

     negative rho (up, down):  5.249E-03 0.000E+00

     total cpu time spent up to now is      413.3 secs

     total energy              =   -1228.43038622 Ry
     estimated scf accuracy    <       0.00435388 Ry

     iteration # 43     ecut=    60.00 Ry     beta= 0.50
     Davidson diagonalization with overlap
     ethr =  8.68E-06,  avg # of iterations =  1.0

     negative rho (up, down):  4.247E-03 0.000E+00

     total cpu time spent up to now is      416.7 secs

     total energy              =   -1228.42985676 Ry
     estimated scf accuracy    <       0.00479719 Ry

     iteration # 44     ecut=    60.00 Ry     beta= 0.50
     Davidson diagonalization with overlap
     ethr =  8.68E-06,  avg # of iterations =  1.7

     negative rho (up, down):  4.116E-03 0.000E+00

     total cpu time spent up to now is      419.0 secs

     total energy              =   -1228.43000651 Ry
     estimated scf accuracy    <       0.00409410 Ry

     iteration # 45     ecut=    60.00 Ry     beta= 0.50
     Davidson diagonalization with overlap
     ethr =  8.68E-06,  avg # of iterations =  1.0

     negative rho (up, down):  1.556E-03 0.000E+00

     total cpu time spent up to now is      420.3 secs

     total energy              =   -1228.42764616 Ry
     estimated scf accuracy    <       0.00485217 Ry

     iteration # 46     ecut=    60.00 Ry     beta= 0.50
     Davidson diagonalization with overlap
     ethr =  8.68E-06,  avg # of iterations =  5.8

     negative rho (up, down):  1.283E-03 0.000E+00

     total cpu time spent up to now is      424.1 secs

     total energy              =   -1228.42868418 Ry
     estimated scf accuracy    <       0.01281546 Ry

     iteration # 47     ecut=    60.00 Ry     beta= 0.50
     Davidson diagonalization with overlap
     ethr =  8.68E-06,  avg # of iterations =  4.5

     negative rho (up, down):  2.705E-03 0.000E+00

     total cpu time spent up to now is      427.6 secs

     total energy              =   -1228.42798162 Ry
     estimated scf accuracy    <       0.00599386 Ry

     iteration # 48     ecut=    60.00 Ry     beta= 0.50
     Davidson diagonalization with overlap
     ethr =  8.68E-06,  avg # of iterations =  6.3

     negative rho (up, down):  1.626E-03 0.000E+00

     total cpu time spent up to now is      432.0 secs

     total energy              =   -1228.42922717 Ry
     estimated scf accuracy    <       0.02359384 Ry

     iteration # 49     ecut=    60.00 Ry     beta= 0.50
     Davidson diagonalization with overlap
     ethr =  8.68E-06,  avg # of iterations =  6.1

     negative rho (up, down):  7.895E-04 0.000E+00

     total cpu time spent up to now is      436.3 secs

     total energy              =   -1228.42663760 Ry
     estimated scf accuracy    <       0.02469659 Ry

     iteration # 50     ecut=    60.00 Ry     beta= 0.50
     Davidson diagonalization with overlap
     ethr =  8.68E-06,  avg # of iterations =  5.6

     negative rho (up, down):  8.229E-04 0.000E+00

     total cpu time spent up to now is      440.6 secs

     total energy              =   -1228.42856912 Ry
     estimated scf accuracy    <       0.00078604 Ry

     iteration # 51     ecut=    60.00 Ry     beta= 0.50
     Davidson diagonalization with overlap
     ethr =  2.18E-06,  avg # of iterations =  5.3

     negative rho (up, down):  7.845E-04 0.000E+00

     total cpu time spent up to now is      445.6 secs

     total energy              =   -1228.42883827 Ry
     estimated scf accuracy    <       0.00073245 Ry

     iteration # 52     ecut=    60.00 Ry     beta= 0.50
     Davidson diagonalization with overlap
     ethr =  2.03E-06,  avg # of iterations =  1.1

     negative rho (up, down):  8.128E-04 0.000E+00

     total cpu time spent up to now is      448.8 secs

     total energy              =   -1228.42880737 Ry
     estimated scf accuracy    <       0.00042362 Ry

     iteration # 53     ecut=    60.00 Ry     beta= 0.50
     Davidson diagonalization with overlap
     ethr =  1.18E-06,  avg # of iterations =  3.1

     negative rho (up, down):  8.251E-04 0.000E+00

     total cpu time spent up to now is      452.5 secs

     total energy              =   -1228.42882508 Ry
     estimated scf accuracy    <       0.00007423 Ry

     iteration # 54     ecut=    60.00 Ry     beta= 0.50
     Davidson diagonalization with overlap
     ethr =  2.06E-07,  avg # of iterations =  4.9

     negative rho (up, down):  8.260E-04 0.000E+00

     total cpu time spent up to now is      456.9 secs

     total energy              =   -1228.42883827 Ry
     estimated scf accuracy    <       0.00001368 Ry

     iteration # 55     ecut=    60.00 Ry     beta= 0.50
     Davidson diagonalization with overlap
     ethr =  3.80E-08,  avg # of iterations =  2.9

     negative rho (up, down):  8.318E-04 0.000E+00

     total cpu time spent up to now is      460.8 secs

     total energy              =   -1228.42883821 Ry
     estimated scf accuracy    <       0.00000395 Ry

     iteration # 56     ecut=    60.00 Ry     beta= 0.50
     Davidson diagonalization with overlap
     ethr =  1.10E-08,  avg # of iterations =  5.9

     negative rho (up, down):  8.394E-04 0.000E+00

     total cpu time spent up to now is      463.8 secs

     total energy              =   -1228.42883926 Ry
     estimated scf accuracy    <       0.00000480 Ry

     iteration # 57     ecut=    60.00 Ry     beta= 0.50
     Davidson diagonalization with overlap
     ethr =  1.10E-08,  avg # of iterations =  1.9

     negative rho (up, down):  8.363E-04 0.000E+00

     total cpu time spent up to now is      465.3 secs

     total energy              =   -1228.42883963 Ry
     estimated scf accuracy    <       0.00000236 Ry

     iteration # 58     ecut=    60.00 Ry     beta= 0.50
     Davidson diagonalization with overlap
     ethr =  6.57E-09,  avg # of iterations =  1.4

     negative rho (up, down):  8.403E-04 0.000E+00

     total cpu time spent up to now is      468.3 secs

     total energy              =   -1228.42883909 Ry
     estimated scf accuracy    <       0.00000352 Ry

     iteration # 59     ecut=    60.00 Ry     beta= 0.50
     Davidson diagonalization with overlap
     ethr =  6.57E-09,  avg # of iterations =  3.3

     negative rho (up, down):  8.419E-04 0.000E+00

     total cpu time spent up to now is      472.2 secs

     total energy              =   -1228.42883925 Ry
     estimated scf accuracy    <       0.00000059 Ry

     iteration # 60     ecut=    60.00 Ry     beta= 0.50
     Davidson diagonalization with overlap
     ethr =  1.64E-09,  avg # of iterations =  5.1

     negative rho (up, down):  8.405E-04 0.000E+00

     total cpu time spent up to now is      476.3 secs

     total energy              =   -1228.42883928 Ry
     estimated scf accuracy    <       0.00000023 Ry

     iteration # 61     ecut=    60.00 Ry     beta= 0.50
     Davidson diagonalization with overlap
     ethr =  6.53E-10,  avg # of iterations =  4.5

     negative rho (up, down):  8.407E-04 0.000E+00

     total cpu time spent up to now is      480.4 secs

     total energy              =   -1228.42883933 Ry
     estimated scf accuracy    <       0.00000010 Ry

     iteration # 62     ecut=    60.00 Ry     beta= 0.50
     Davidson diagonalization with overlap
     ethr =  2.80E-10,  avg # of iterations =  1.9

     negative rho (up, down):  8.410E-04 0.000E+00

     total cpu time spent up to now is      483.9 secs

     total energy              =   -1228.42883933 Ry
     estimated scf accuracy    <       0.00000009 Ry

     iteration # 63     ecut=    60.00 Ry     beta= 0.50
     Davidson diagonalization with overlap
     ethr =  2.55E-10,  avg # of iterations =  1.3

     negative rho (up, down):  8.406E-04 0.000E+00

     total cpu time spent up to now is      487.1 secs

     total energy              =   -1228.42883933 Ry
     estimated scf accuracy    <       0.00000006 Ry

     iteration # 64     ecut=    60.00 Ry     beta= 0.50
     Davidson diagonalization with overlap
     ethr =  1.67E-10,  avg # of iterations =  2.3

     negative rho (up, down):  8.414E-04 0.000E+00

     total cpu time spent up to now is      490.9 secs

     total energy              =   -1228.42883931 Ry
     estimated scf accuracy    <       0.00000006 Ry

     iteration # 65     ecut=    60.00 Ry     beta= 0.50
     Davidson diagonalization with overlap
     ethr =  1.57E-10,  avg # of iterations =  4.8

     negative rho (up, down):  8.410E-04 0.000E+00

     total cpu time spent up to now is      495.2 secs

     total energy              =   -1228.42883933 Ry
     estimated scf accuracy    <       0.00000001 Ry

     iteration # 66     ecut=    60.00 Ry     beta= 0.50
     Davidson diagonalization with overlap
     ethr =  3.62E-11,  avg # of iterations =  4.9

     negative rho (up, down):  8.407E-04 0.000E+00

     total cpu time spent up to now is      499.5 secs

     total energy              =   -1228.42883933 Ry
     estimated scf accuracy    <       0.00000001 Ry

     iteration # 67     ecut=    60.00 Ry     beta= 0.50
     Davidson diagonalization with overlap
     ethr =  3.62E-11,  avg # of iterations =  1.9

     negative rho (up, down):  8.421E-04 0.000E+00

     total cpu time spent up to now is      502.9 secs

     End of self-consistent calculation

          k = 0.0000 0.0000 0.0000 ( 11811 PWs)   bands (ev):

   -75.1110 -48.3592 -48.3592 -48.3504 -48.3504 -48.3500 -39.2947 -39.0454
   -39.0454 -15.0916 -13.9919  -6.9142  -3.6714  -2.0739  -2.0739  -1.9862
    -0.9689  -0.9689

          k = 0.0000 0.0966 0.0000 ( 11801 PWs)   bands (ev):

   -75.1100 -48.3592 -48.3588 -48.3505 -48.3505 -48.3497 -39.2916 -39.0647
   -39.0500 -14.9883 -13.9181  -6.7601  -3.7124  -2.3880  -1.9710  -1.9442
    -1.2057  -1.1418

          k = 0.0000 0.1931 0.0000 ( 11789 PWs)   bands (ev):

   -75.1073 -48.3594 -48.3577 -48.3510 -48.3505 -48.3491 -39.2831 -39.1171
   -39.0626 -14.6905 -13.7054  -6.3300  -3.8520  -3.1856  -1.9811  -1.8207
    -1.7706  -1.4676

          k = 0.0000 0.2897 0.0000 ( 11777 PWs)   bands (ev):

   -75.1036 -48.3594 -48.3562 -48.3516 -48.3506 -48.3482 -39.2716 -39.1881
   -39.0798 -14.2369 -13.3824  -5.7527  -4.2356  -4.1478  -2.7873  -2.0719
    -1.9730  -1.2869

          k = 0.0000 0.3863 0.0000 ( 11771 PWs)   bands (ev):

   -75.0999 -48.3596 -48.3547 -48.3521 -48.3506 -48.3472 -39.2603 -39.2580
   -39.0969 -13.7072 -13.0064  -5.6220  -4.9670  -4.6845  -3.2664  -2.4430
    -2.1343  -1.0962

          k = 0.0000 0.4829 0.0000 ( 11733 PWs)   bands (ev):

   -75.0972 -48.3598 -48.3537 -48.3525 -48.3505 -48.3464 -39.3091 -39.2515
   -39.1094 -13.2482 -12.6760  -6.3523  -5.4738  -4.6171  -3.4304  -2.6886
    -2.0364  -1.0577

          k = 0.0000-0.5794 0.0000 ( 11704 PWs)   bands (ev):

   -75.0962 -48.3598 -48.3534 -48.3527 -48.3503 -48.3460 -39.3276 -39.2484
   -39.1140 -13.0603 -12.5355  -6.6850  -5.7093  -4.5679  -3.4682  -2.7735
    -1.9078  -1.0630

          k = 0.0836 0.1449 0.0000 ( 11799 PWs)   bands (ev):

   -75.1081 -48.3593 -48.3581 -48.3508 -48.3505 -48.3493 -39.2858 -39.0996
   -39.0596 -14.7877 -13.7747  -6.4661  -3.7952  -2.9289  -1.9128  -1.8328
    -1.7189  -1.3364

          k = 0.0836 0.2414 0.0000 ( 11778 PWs)   bands (ev):

   -75.1049 -48.3593 -48.3569 -48.3513 -48.3506 -48.3485 -39.2758 -39.1587
   -39.0770 -14.4109 -13.5059  -5.9424  -3.9818  -3.7911  -2.6687  -1.9542
    -1.8232  -1.4020

          k = 0.0836 0.3380 0.0000 ( 11775 PWs)   bands (ev):

   -75.1013 -48.3593 -48.3555 -48.3519 -48.3507 -48.3476 -39.2643 -39.2262
   -39.0972 -13.9147 -13.1527  -5.4228  -4.7293  -4.4027  -3.3408  -2.2525
    -2.1976  -1.2236

          k = 0.0836 0.4346 0.0000 ( 11746 PWs)   bands (ev):

   -75.0981 -48.3594 -48.3543 -48.3523 -48.3506 -48.3467 -39.2841 -39.2542
   -39.1146 -13.4084 -12.7905  -5.9139  -5.1632  -4.6509  -3.5199  -2.6527
    -2.3248  -1.1908

          k = 0.0836 0.5312 0.0000 ( 11686 PWs)   bands (ev):

   -75.0962 -48.3593 -48.3536 -48.3526 -48.3505 -48.3461 -39.3172 -39.2484
   -39.1247 -13.0706 -12.5410  -6.5026  -5.5990  -4.5249  -3.4978  -2.9290
    -2.2428  -1.1769

          k = 0.1673 0.2897 0.0000 ( 11767 PWs)   bands (ev):

   -75.1017 -48.3589 -48.3560 -48.3517 -48.3507 -48.3477 -39.2658 -39.2099
   -39.1020 -13.9883 -13.2042  -5.3834  -4.5646  -4.1179  -3.5781  -2.3083
    -2.1086  -1.2848

          k = 0.1673 0.3863 0.0000 ( 11741 PWs)   bands (ev):

   -75.0985 -48.3586 -48.3551 -48.3521 -48.3509 -48.3469 -39.2582 -39.2556
   -39.1295 -13.5024 -12.8551  -5.3832  -4.8250  -4.6435  -3.9121  -2.7757
    -2.5535  -1.2917

          k = 0.1673 0.4829 0.0000 ( 11711 PWs)   bands (ev):

   -75.0962 -48.3584 -48.3543 -48.3524 -48.3508 -48.3463 -39.2920 -39.2484
   -39.1506 -13.0912 -12.5517  -6.0376  -5.3085  -4.4514  -3.8002  -3.0772
    -2.9890  -1.2307

          k = 0.1673 0.5794 0.0000 ( 11682 PWs)   bands (ev):

   -75.0953 -48.3583 -48.3541 -48.3524 -48.3508 -48.3461 -39.3043 -39.2457
   -39.1584 -12.9261 -12.4243  -6.3065  -5.5361  -4.3886  -3.6243  -3.3319
    -3.0872  -1.1450

          k = 0.2509 0.4346 0.0000 ( 11731 PWs)   bands (ev):

   -75.0962 -48.3578 -48.3549 -48.3522 -48.3511 -48.3464 -39.2751 -39.2484
   -39.1679 -13.1014 -12.5568  -5.6943  -5.0830  -4.4464  -4.0977  -3.5012
    -2.9937  -1.2235

          k = 0.2509 0.5312 0.0000 ( 11689 PWs)   bands (ev):

   -75.0949 -48.3571 -48.3548 -48.3521 -48.3512 -48.3463 -39.2779 -39.2442
   -39.1970 -12.8476 -12.3585  -5.8761  -5.3897  -4.3474  -4.0157  -3.8864
    -3.3849  -1.0069

          k = 0.3345 0.5794 0.0000 ( 11694 PWs)   bands (ev):

   -75.0944 -48.3561 -48.3556 -48.3518 -48.3516 -48.3463 -39.2492 -39.2426
   -39.2376 -12.7562 -12.2832  -5.5394  -5.5265  -4.6461  -4.0931  -4.0360
    -3.5286  -0.8364

     highest occupied level (ev):    -0.8364

!    total energy              =   -1228.42883932 Ry
     total all-electron energy =    -37944.519270 Ry
     estimated scf accuracy    <          8.8E-09 Ry

     The total energy is the sum of the following terms:
     one-electron contribution =   -2807.00826020 Ry
     hartree contribution      =    1401.11717014 Ry
     xc contribution           =     -73.33844687 Ry
     ewald contribution        =    1043.38775850 Ry
     one-center paw contrib.   =    -792.58706089 Ry

     convergence has been achieved in  67 iterations

     negative rho (up, down):  8.421E-04 0.000E+00

     Forces acting on atoms (cartesian axes, Ry/au):

     atom    1 type  3   force =     0.00000000    0.00000000   -0.11369176
     atom    2 type  1   force =     0.00000000    0.00000000   -0.04037117
     atom    3 type  2   force =     0.00000000   -0.00000000    0.15406293

     Total force =     0.195681     Total SCF correction =     0.000679


     Computing stress (Cartesian axis) and pressure


     negative rho (up, down):  8.421E-04 0.000E+00
          total   stress  (Ry/bohr**3)                   (kbar)     P=      -43.10
  -0.00010911   0.00000000   0.00000000          -16.05        0.00        0.00
   0.00000000  -0.00010911   0.00000000            0.00      -16.05        0.00
   0.00000000   0.00000000  -0.00066083            0.00        0.00      -97.21

     Energy error            =      5.0E-02 Ry
     Gradient error          =      1.5E-01 Ry/Bohr
     Cell gradient error     =      1.6E+01 kbar

     number of scf cycles    =   2
     number of bfgs steps    =   1

     enthalpy           old  =   -1228.3792777113 Ry
     enthalpy           new  =   -1228.4288393161 Ry

     CASE: enthalpy          _new < enthalpy          _old


     WARNING: bfgs curvature condition failed, Theta= 0.930
     new trust radius        =       0.1973732162 bohr
     new conv_thr            =       0.0000000100 Ry

     new unit-cell volume =   1474.84277 a.u.^3 (   218.54915 Ang^3 )
     density =      2.24039 g/cm^3

CELL_PARAMETERS (angstrom)
   3.177161130   0.000000000   0.000000000
  -1.588580565   2.751502251   0.000000000
   0.000000000   0.000000000  25.000000000

ATOMIC_POSITIONS (crystal)
Se            0.6666666667        0.3333333333        0.5741933104
W             0.3333333333        0.6666666667        0.4978308585
S             0.6666666667        0.3333333333       -0.5720241688



     Writing config-only to output data dir ./work/WSSe.save/
     NEW-OLD atomic charge density approx. for the potential

     Check: negative core charge=   -0.000001

     negative rho (up, down):  8.879E-04 0.000E+00
     extrapolated charge   35.74393, renormalised to   36.00000

     total cpu time spent up to now is      511.4 secs

     Self-consistent Calculation

     iteration #  1     ecut=    60.00 Ry     beta= 0.50
     Davidson diagonalization with overlap
     ethr =  1.00E-06,  avg # of iterations = 15.7

     negative rho (up, down):  5.822E-01 0.000E+00

     total cpu time spent up to now is      521.4 secs

     total energy              =   -1227.52360506 Ry
     estimated scf accuracy    <       5.02335495 Ry

     iteration #  2     ecut=    60.00 Ry     beta= 0.50
     Davidson diagonalization with overlap
     ethr =  1.00E-02,  avg # of iterations = 10.0

     negative rho (up, down):  5.993E-01 0.000E+00

     total cpu time spent up to now is      523.9 secs

     total energy              =   -1223.17797251 Ry
     estimated scf accuracy    <      63.75879433 Ry

     iteration #  3     ecut=    60.00 Ry     beta= 0.50
     Davidson diagonalization with overlap
     ethr =  1.00E-02,  avg # of iterations =  8.2

     negative rho (up, down):  6.331E-01 0.000E+00

     total cpu time spent up to now is      528.7 secs

     total energy              =   -1212.84259759 Ry
     estimated scf accuracy    <     302.12751877 Ry

     iteration #  4     ecut=    60.00 Ry     beta= 0.50
     Davidson diagonalization with overlap
     ethr =  1.00E-02,  avg # of iterations =  5.0

     negative rho (up, down):  5.611E-03 0.000E+00

     total cpu time spent up to now is      532.9 secs

     total energy              =   -1160.20278320 Ry
     estimated scf accuracy    <    4703.20815106 Ry

     iteration #  5     ecut=    60.00 Ry     beta= 0.50
     Davidson diagonalization with overlap
     ethr =  1.00E-02,  avg # of iterations =  7.9

     negative rho (up, down):  2.569E-04 0.000E+00

     total cpu time spent up to now is      538.0 secs

     total energy              =   -1227.84659362 Ry
     estimated scf accuracy    <       5.24630281 Ry

     iteration #  6     ecut=    60.00 Ry     beta= 0.50
     Davidson diagonalization with overlap
     ethr =  1.00E-02,  avg # of iterations =  3.9

     negative rho (up, down):  8.467E-03 0.000E+00

     total cpu time spent up to now is      541.9 secs

     total energy              =   -1228.25505853 Ry
     estimated scf accuracy    <       1.11629585 Ry

     iteration #  7     ecut=    60.00 Ry     beta= 0.50
     Davidson diagonalization with overlap
     ethr =  3.10E-03,  avg # of iterations =  2.6

     negative rho (up, down):  4.262E-02 0.000E+00

     total cpu time spent up to now is      545.5 secs

     total energy              =   -1228.29614681 Ry
     estimated scf accuracy    <       0.67876176 Ry

     iteration #  8     ecut=    60.00 Ry     beta= 0.50
     Davidson diagonalization with overlap
     ethr =  1.89E-03,  avg # of iterations =  3.1

     negative rho (up, down):  5.215E-02 0.000E+00

     total cpu time spent up to now is      548.3 secs

     total energy              =   -1228.34875329 Ry
     estimated scf accuracy    <       0.38870361 Ry

     iteration #  9     ecut=    60.00 Ry     beta= 0.50
     Davidson diagonalization with overlap
     ethr =  1.08E-03,  avg # of iterations =  1.4

     negative rho (up, down):  5.897E-02 0.000E+00

     total cpu time spent up to now is      550.1 secs

     total energy              =   -1228.32056018 Ry
     estimated scf accuracy    <       0.33763768 Ry

     iteration # 10     ecut=    60.00 Ry     beta= 0.50
     Davidson diagonalization with overlap
     ethr =  9.38E-04,  avg # of iterations =  2.7

     negative rho (up, down):  7.803E-02 0.000E+00

     total cpu time spent up to now is      553.2 secs

     total energy              =   -1228.32858508 Ry
     estimated scf accuracy    <       0.22947592 Ry

     iteration # 11     ecut=    60.00 Ry     beta= 0.50
     Davidson diagonalization with overlap
     ethr =  6.37E-04,  avg # of iterations =  2.2

     negative rho (up, down):  7.113E-02 0.000E+00

     total cpu time spent up to now is      556.2 secs

     total energy              =   -1228.34337420 Ry
     estimated scf accuracy    <       0.13544359 Ry

     iteration # 12     ecut=    60.00 Ry     beta= 0.50
     Davidson diagonalization with overlap
     ethr =  3.76E-04,  avg # of iterations =  2.4

     negative rho (up, down):  1.861E-01 0.000E+00

     total cpu time spent up to now is      559.3 secs

     total energy              =   -1228.26524085 Ry
     estimated scf accuracy    <       0.15829488 Ry

     iteration # 13     ecut=    60.00 Ry     beta= 0.50
     Davidson diagonalization with overlap
     ethr =  3.76E-04,  avg # of iterations =  5.3

     negative rho (up, down):  1.866E-01 0.000E+00

     total cpu time spent up to now is      563.5 secs

     total energy              =   -1228.08878779 Ry
     estimated scf accuracy    <       0.56075537 Ry

     iteration # 14     ecut=    60.00 Ry     beta= 0.50
     Davidson diagonalization with overlap
     ethr =  3.76E-04,  avg # of iterations =  5.6

     negative rho (up, down):  2.416E-01 0.000E+00

     total cpu time spent up to now is      567.5 secs

     total energy              =   -1228.11616844 Ry
     estimated scf accuracy    <       0.11573683 Ry

     iteration # 15     ecut=    60.00 Ry     beta= 0.50
     Davidson diagonalization with overlap
     ethr =  3.21E-04,  avg # of iterations =  5.5

     negative rho (up, down):  2.007E-01 0.000E+00

     total cpu time spent up to now is      572.4 secs

     total energy              =   -1228.32155471 Ry
     estimated scf accuracy    <       0.63594964 Ry

     iteration # 16     ecut=    60.00 Ry     beta= 0.50
     Davidson diagonalization with overlap
     ethr =  3.21E-04,  avg # of iterations =  4.0

     negative rho (up, down):  1.968E-01 0.000E+00

     total cpu time spent up to now is      576.7 secs

     total energy              =   -1228.12445977 Ry
     estimated scf accuracy    <       0.17983381 Ry

     iteration # 17     ecut=    60.00 Ry     beta= 0.50
     Davidson diagonalization with overlap
     ethr =  3.21E-04,  avg # of iterations =  6.2

     negative rho (up, down):  1.359E-01 0.000E+00

     total cpu time spent up to now is      581.9 secs

     total energy              =   -1228.18089127 Ry
     estimated scf accuracy    <       0.68095723 Ry

     iteration # 18     ecut=    60.00 Ry     beta= 0.50
     Davidson diagonalization with overlap
     ethr =  3.21E-04,  avg # of iterations =  5.0

     negative rho (up, down):  1.468E-01 0.000E+00

     total cpu time spent up to now is      586.3 secs

     total energy              =   -1228.44185848 Ry
     estimated scf accuracy    <       0.10163279 Ry

     iteration # 19     ecut=    60.00 Ry     beta= 0.50
     Davidson diagonalization with overlap
     ethr =  2.82E-04,  avg # of iterations =  2.1

     negative rho (up, down):  1.788E-01 0.000E+00

     total cpu time spent up to now is      589.7 secs

     total energy              =   -1228.47363267 Ry
     estimated scf accuracy    <       0.10931636 Ry

     iteration # 20     ecut=    60.00 Ry     beta= 0.50
     Davidson diagonalization with overlap
     ethr =  2.82E-04,  avg # of iterations =  3.4

     negative rho (up, down):  1.580E-01 0.000E+00

     total cpu time spent up to now is      592.1 secs

     total energy              =   -1228.32479583 Ry
     estimated scf accuracy    <       0.27059609 Ry

     iteration # 21     ecut=    60.00 Ry     beta= 0.50
     Davidson diagonalization with overlap
     ethr =  2.82E-04,  avg # of iterations =  3.9

     negative rho (up, down):  1.569E-01 0.000E+00

     total cpu time spent up to now is      594.2 secs

     total energy              =   -1228.44179693 Ry
     estimated scf accuracy    <       0.08848984 Ry

     iteration # 22     ecut=    60.00 Ry     beta= 0.50
     Davidson diagonalization with overlap
     ethr =  2.46E-04,  avg # of iterations =  1.0

     negative rho (up, down):  1.579E-01 0.000E+00

     total cpu time spent up to now is      597.3 secs

     total energy              =   -1228.44161974 Ry
     estimated scf accuracy    <       0.08971909 Ry

     iteration # 23     ecut=    60.00 Ry     beta= 0.50
     Davidson diagonalization with overlap
     ethr =  2.46E-04,  avg # of iterations =  2.0

     negative rho (up, down):  1.700E-01 0.000E+00

     total cpu time spent up to now is      600.7 secs

     total energy              =   -1228.42189945 Ry
     estimated scf accuracy    <       0.08734326 Ry

     iteration # 24     ecut=    60.00 Ry     beta= 0.50
     Davidson diagonalization with overlap
     ethr =  2.43E-04,  avg # of iterations =  2.7

     negative rho (up, down):  2.160E-01 0.000E+00

     total cpu time spent up to now is      604.5 secs

     total energy              =   -1228.50890151 Ry
     estimated scf accuracy    <       0.11005799 Ry

     iteration # 25     ecut=    60.00 Ry     beta= 0.50
     Davidson diagonalization with overlap
     ethr =  2.43E-04,  avg # of iterations =  9.0

     negative rho (up, down):  2.919E-01 0.000E+00

     total cpu time spent up to now is      610.6 secs

     total energy              =   -1217.02201397 Ry
     estimated scf accuracy    <      50.82162121 Ry

     iteration # 26     ecut=    60.00 Ry     beta= 0.50
     Davidson diagonalization with overlap
     ethr =  2.43E-04,  avg # of iterations =  9.7

     negative rho (up, down):  2.473E-01 0.000E+00

     total cpu time spent up to now is      617.6 secs

     total energy              =   -1235.04763873 Ry
     estimated scf accuracy    <    2149.72634602 Ry

     iteration # 27     ecut=    60.00 Ry     beta= 0.50
     Davidson diagonalization with overlap
     ethr =  2.43E-04,  avg # of iterations =  5.2

     negative rho (up, down):  1.453E-01 0.000E+00

     total cpu time spent up to now is      621.8 secs

     total energy              =   -1200.00478249 Ry
     estimated scf accuracy    <    1699.14871100 Ry

     iteration # 28     ecut=    60.00 Ry     beta= 0.50
     Davidson diagonalization with overlap
     c_bands:  1 eigenvalues not converged
     c_bands:  1 eigenvalues not converged
     ethr =  2.43E-04,  avg # of iterations = 12.9

     negative rho (up, down):  1.481E-01 0.000E+00

     total cpu time spent up to now is      628.4 secs

     total energy              =   -1228.46240763 Ry
     estimated scf accuracy    <       0.10284443 Ry

     iteration # 29     ecut=    60.00 Ry     beta= 0.50
     Davidson diagonalization with overlap
     ethr =  2.43E-04,  avg # of iterations =  3.9

     negative rho (up, down):  1.312E-01 0.000E+00

     total cpu time spent up to now is      632.5 secs

     total energy              =   -1228.35073271 Ry
     estimated scf accuracy    <       0.17441716 Ry

     iteration # 30     ecut=    60.00 Ry     beta= 0.50
     Davidson diagonalization with overlap
     ethr =  2.43E-04,  avg # of iterations =  3.3

     negative rho (up, down):  1.147E-01 0.000E+00

     total cpu time spent up to now is      636.5 secs

     total energy              =   -1228.47561522 Ry
     estimated scf accuracy    <       0.11070506 Ry

     iteration # 31     ecut=    60.00 Ry     beta= 0.50
     Davidson diagonalization with overlap
     ethr =  2.43E-04,  avg # of iterations =  2.0

     negative rho (up, down):  1.137E-01 0.000E+00

     total cpu time spent up to now is      640.0 secs

     total energy              =   -1228.48147034 Ry
     estimated scf accuracy    <       0.09354583 Ry

     iteration # 32     ecut=    60.00 Ry     beta= 0.50
     Davidson diagonalization with overlap
     ethr =  2.43E-04,  avg # of iterations =  1.0

     negative rho (up, down):  1.130E-01 0.000E+00

     total cpu time spent up to now is      643.3 secs

     total energy              =   -1228.48191532 Ry
     estimated scf accuracy    <       0.08904705 Ry

     iteration # 33     ecut=    60.00 Ry     beta= 0.50
     Davidson diagonalization with overlap
     ethr =  2.43E-04,  avg # of iterations =  1.0

     negative rho (up, down):  1.091E-01 0.000E+00

     total cpu time spent up to now is      646.5 secs

     total energy              =   -1228.48093863 Ry
     estimated scf accuracy    <       0.08428901 Ry

     iteration # 34     ecut=    60.00 Ry     beta= 0.50
     Davidson diagonalization with overlap
     ethr =  2.34E-04,  avg # of iterations =  1.0

     negative rho (up, down):  8.463E-02 0.000E+00

     total cpu time spent up to now is      649.6 secs

     total energy              =   -1228.46563015 Ry
     estimated scf accuracy    <       0.08005424 Ry

     iteration # 35     ecut=    60.00 Ry     beta= 0.50
     Davidson diagonalization with overlap
     ethr =  2.22E-04,  avg # of iterations =  2.0

     negative rho (up, down):  4.296E-02 0.000E+00

     total cpu time spent up to now is      652.1 secs

     total energy              =   -1228.45664930 Ry
     estimated scf accuracy    <       0.06436061 Ry

     iteration # 36     ecut=    60.00 Ry     beta= 0.50
     Davidson diagonalization with overlap
     ethr =  1.79E-04,  avg # of iterations =  4.5

     negative rho (up, down):  1.708E-02 0.000E+00

     total cpu time spent up to now is      654.9 secs

     total energy              =   -1228.30316792 Ry
     estimated scf accuracy    <       0.24619215 Ry

     iteration # 37     ecut=    60.00 Ry     beta= 0.50
     Davidson diagonalization with overlap
     ethr =  1.79E-04,  avg # of iterations =  4.1

     negative rho (up, down):  1.037E-02 0.000E+00

     total cpu time spent up to now is      657.7 secs

     total energy              =   -1228.47294927 Ry
     estimated scf accuracy    <       0.01426413 Ry

     iteration # 38     ecut=    60.00 Ry     beta= 0.50
     Davidson diagonalization with overlap
     ethr =  3.96E-05,  avg # of iterations =  4.8

     negative rho (up, down):  1.147E-02 0.000E+00

     total cpu time spent up to now is      659.6 secs

     total energy              =   -1228.47595488 Ry
     estimated scf accuracy    <       0.00927541 Ry

     iteration # 39     ecut=    60.00 Ry     beta= 0.50
     Davidson diagonalization with overlap
     ethr =  2.58E-05,  avg # of iterations =  1.6

     negative rho (up, down):  1.245E-02 0.000E+00

     total cpu time spent up to now is      661.0 secs

     total energy              =   -1228.47570364 Ry
     estimated scf accuracy    <       0.00699018 Ry

     iteration # 40     ecut=    60.00 Ry     beta= 0.50
     Davidson diagonalization with overlap
     ethr =  1.94E-05,  avg # of iterations =  4.2

     negative rho (up, down):  9.087E-03 0.000E+00

     total cpu time spent up to now is      663.1 secs

     total energy              =   -1228.47473484 Ry
     estimated scf accuracy    <       0.00501623 Ry

     iteration # 41     ecut=    60.00 Ry     beta= 0.50
     Davidson diagonalization with overlap
     ethr =  1.39E-05,  avg # of iterations =  3.1

     negative rho (up, down):  1.085E-02 0.000E+00

     total cpu time spent up to now is      667.0 secs

     total energy              =   -1228.47491524 Ry
     estimated scf accuracy    <       0.00460361 Ry

     iteration # 42     ecut=    60.00 Ry     beta= 0.50
     Davidson diagonalization with overlap
     ethr =  1.28E-05,  avg # of iterations =  3.4

     negative rho (up, down):  4.671E-03 0.000E+00

     total cpu time spent up to now is      671.1 secs

     total energy              =   -1228.46956307 Ry
     estimated scf accuracy    <       0.00702443 Ry

     iteration # 43     ecut=    60.00 Ry     beta= 0.50
     Davidson diagonalization with overlap
     ethr =  1.28E-05,  avg # of iterations =  2.8

     negative rho (up, down):  2.603E-03 0.000E+00

     total cpu time spent up to now is      675.0 secs

     total energy              =   -1228.47172074 Ry
     estimated scf accuracy    <       0.00109587 Ry

     iteration # 44     ecut=    60.00 Ry     beta= 0.50
     Davidson diagonalization with overlap
     ethr =  3.04E-06,  avg # of iterations =  5.0

     negative rho (up, down):  1.645E-03 0.000E+00

     total cpu time spent up to now is      678.1 secs

     total energy              =   -1228.47211505 Ry
     estimated scf accuracy    <       0.00205486 Ry

     iteration # 45     ecut=    60.00 Ry     beta= 0.50
     Davidson diagonalization with overlap
     ethr =  3.04E-06,  avg # of iterations =  3.8

     negative rho (up, down):  1.316E-03 0.000E+00

     total cpu time spent up to now is      681.0 secs

     total energy              =   -1228.47233263 Ry
     estimated scf accuracy    <       0.00009494 Ry

     iteration # 46     ecut=    60.00 Ry     beta= 0.50
     Davidson diagonalization with overlap
     ethr =  2.64E-07,  avg # of iterations =  4.9

     negative rho (up, down):  1.384E-03 0.000E+00

     total cpu time spent up to now is      685.7 secs

     total energy              =   -1228.47236484 Ry
     estimated scf accuracy    <       0.00004585 Ry

     iteration # 47     ecut=    60.00 Ry     beta= 0.50
     Davidson diagonalization with overlap
     ethr =  1.27E-07,  avg # of iterations =  2.4

     negative rho (up, down):  1.320E-03 0.000E+00

     total cpu time spent up to now is      689.4 secs

     total energy              =   -1228.47236325 Ry
     estimated scf accuracy    <       0.00001250 Ry

     iteration # 48     ecut=    60.00 Ry     beta= 0.50
     Davidson diagonalization with overlap
     ethr =  3.47E-08,  avg # of iterations =  4.7

     negative rho (up, down):  1.310E-03 0.000E+00

     total cpu time spent up to now is      693.6 secs

     total energy              =   -1228.47236396 Ry
     estimated scf accuracy    <       0.00000220 Ry

     iteration # 49     ecut=    60.00 Ry     beta= 0.50
     Davidson diagonalization with overlap
     ethr =  6.12E-09,  avg # of iterations =  3.5

     negative rho (up, down):  1.288E-03 0.000E+00

     total cpu time spent up to now is      697.7 secs

     total energy              =   -1228.47236455 Ry
     estimated scf accuracy    <       0.00000095 Ry

     iteration # 50     ecut=    60.00 Ry     beta= 0.50
     Davidson diagonalization with overlap
     ethr =  2.65E-09,  avg # of iterations =  3.7

     negative rho (up, down):  1.282E-03 0.000E+00

     total cpu time spent up to now is      701.9 secs

     total energy              =   -1228.47236474 Ry
     estimated scf accuracy    <       0.00000017 Ry

     iteration # 51     ecut=    60.00 Ry     beta= 0.50
     Davidson diagonalization with overlap
     ethr =  4.83E-10,  avg # of iterations =  5.4

     negative rho (up, down):  1.287E-03 0.000E+00

     total cpu time spent up to now is      706.5 secs

     total energy              =   -1228.47236477 Ry
     estimated scf accuracy    <       0.00000019 Ry

     iteration # 52     ecut=    60.00 Ry     beta= 0.50
     Davidson diagonalization with overlap
     ethr =  4.83E-10,  avg # of iterations =  3.3

     negative rho (up, down):  1.302E-03 0.000E+00

     total cpu time spent up to now is      710.3 secs

     End of self-consistent calculation

          k = 0.0000 0.0000 0.0000 ( 11811 PWs)   bands (ev):

   -74.9768 -48.3190 -48.3190 -48.3049 -48.3049 -48.3024 -39.1866 -38.9444
   -38.9444 -15.2692 -14.1805  -7.0120  -3.6162  -2.4568  -2.4568  -1.7142
    -1.1989  -1.1989

          k =-0.0000 0.0969 0.0000 ( 11801 PWs)   bands (ev):

   -74.9757 -48.3190 -48.3186 -48.3050 -48.3049 -48.3021 -39.1831 -38.9652
   -38.9493 -15.1601 -14.1113  -6.8590  -3.6923  -2.7535  -2.3718  -1.7176
    -1.3888  -1.3584

          k =-0.0000 0.1938 0.0000 ( 11789 PWs)   bands (ev):

   -74.9728 -48.3191 -48.3173 -48.3055 -48.3050 -48.3015 -39.1734 -39.0217
   -38.9628 -14.8456 -13.9128  -6.4330  -3.9610  -3.4711  -2.2525  -2.0883
    -1.6626  -1.6097

          k =-0.0000 0.2908 0.0000 ( 11777 PWs)   bands (ev):

   -74.9688 -48.3191 -48.3157 -48.3061 -48.3051 -48.3006 -39.1603 -39.0980
   -38.9811 -14.3663 -13.6137  -5.8756  -4.5886  -4.2542  -2.7944  -2.4875
    -1.8888  -1.4842

          k =-0.0000 0.3877 0.0000 ( 11771 PWs)   bands (ev):

   -74.9648 -48.3193 -48.3140 -48.3068 -48.3053 -48.2996 -39.1734 -39.1471
   -38.9994 -13.8048 -13.2698  -5.8712  -5.0842  -4.9398  -3.2053  -2.8328
    -2.0959  -1.2757

          k =-0.0000 0.4846 0.0000 ( 11733 PWs)   bands (ev):

   -74.9619 -48.3194 -48.3128 -48.3072 -48.3054 -48.2988 -39.2280 -39.1374
   -39.0127 -13.3165 -12.9704  -6.5814  -5.6873  -4.7942  -3.3623  -3.0732
    -1.9941  -1.1981

          k = 0.0000-0.5815 0.0000 ( 11704 PWs)   bands (ev):

   -74.9608 -48.3194 -48.3123 -48.3074 -48.3053 -48.2985 -39.2478 -39.1338
   -39.0176 -13.1191 -12.8399  -6.9029  -5.9248  -4.7533  -3.4003  -3.1573
    -1.8564  -1.1885

          k = 0.0839 0.1454 0.0000 ( 11799 PWs)   bands (ev):

   -74.9737 -48.3191 -48.3178 -48.3053 -48.3050 -48.3017 -39.1765 -39.0028
   -38.9596 -14.9482 -13.9773  -6.5673  -3.8514  -3.2515  -2.2948  -1.9192
    -1.7216  -1.4360

          k = 0.0839 0.2423 0.0000 ( 11778 PWs)   bands (ev):

   -74.9703 -48.3190 -48.3164 -48.3059 -48.3051 -48.3009 -39.1651 -39.0665
   -38.9782 -14.5502 -13.7275  -6.0509  -4.2817  -3.9219  -2.8787  -2.1389
    -1.9244  -1.4611

          k = 0.0839 0.3392 0.0000 ( 11775 PWs)   bands (ev):

   -74.9663 -48.3190 -48.3149 -48.3065 -48.3053 -48.3000 -39.1519 -39.1390
   -38.9998 -14.0251 -13.4025  -5.5970  -4.9722  -4.6029  -3.4471  -2.4699
    -2.2406  -1.3355

          k = 0.0839 0.4361 0.0000 ( 11746 PWs)   bands (ev):

   -74.9628 -48.3190 -48.3135 -48.3070 -48.3054 -48.2991 -39.2012 -39.1405
   -39.0184 -13.4869 -13.0731  -6.1571  -5.3746  -4.8270  -3.5934  -2.8674
    -2.3760  -1.2640

          k = 0.0839 0.5330 0.0000 ( 11686 PWs)   bands (ev):

   -74.9608 -48.3189 -48.3126 -48.3073 -48.3054 -48.2985 -39.2367 -39.1338
   -39.0291 -13.1299 -12.8438  -6.7192  -5.8314  -4.7095  -3.5340  -3.1778
    -2.2949  -1.2059

          k = 0.1679 0.2908 0.0000 ( 11767 PWs)   bands (ev):

   -74.9668 -48.3187 -48.3154 -48.3063 -48.3053 -48.3001 -39.1537 -39.1215
   -39.0049 -14.1031 -13.4490  -5.5053  -4.8982  -4.2535  -3.7773  -2.4275
    -2.2369  -1.3356

          k = 0.1679 0.3877 0.0000 ( 11741 PWs)   bands (ev):

   -74.9634 -48.3183 -48.3143 -48.3067 -48.3056 -48.2993 -39.1732 -39.1422
   -39.0344 -13.5872 -13.1297  -5.6532  -4.9760  -4.8853  -4.0551  -2.9251
    -2.6261  -1.3138

          k = 0.1679 0.4846 0.0000 ( 11711 PWs)   bands (ev):

   -74.9609 -48.3180 -48.3134 -48.3071 -48.3057 -48.2987 -39.2097 -39.1339
   -39.0570 -13.1516 -12.8509  -6.2552  -5.5900  -4.6235  -3.9629  -3.1888
    -3.0673  -1.2153

          k = 0.1679 0.5815 0.0000 ( 11682 PWs)   bands (ev):

   -74.9599 -48.3179 -48.3131 -48.3071 -48.3057 -48.2985 -39.2228 -39.1308
   -39.0654 -12.9813 -12.7287  -6.5082  -5.8229  -4.5826  -3.8277  -3.3262
    -3.2295  -1.1105

          k = 0.2518 0.4361 0.0000 ( 11731 PWs)   bands (ev):

   -74.9609 -48.3174 -48.3140 -48.3069 -48.3059 -48.2988 -39.1914 -39.1339
   -39.0756 -13.1625 -12.8541  -5.9229  -5.4121  -4.5956  -4.2201  -3.6979
    -2.9992  -1.2158

          k = 0.2518 0.5330 0.0000 ( 11689 PWs)   bands (ev):

   -74.9594 -48.3166 -48.3140 -48.3069 -48.3061 -48.2985 -39.1946 -39.1290
   -39.1068 -12.9015 -12.6618  -6.0688  -5.7444  -4.5467  -4.1365  -4.0761
    -3.3586  -0.9789

          k = 0.3357 0.5815 0.0000 ( 11694 PWs)   bands (ev):

   -74.9589 -48.3154 -48.3149 -48.3066 -48.3065 -48.2985 -39.1654 -39.1488
   -39.1273 -12.8112 -12.5843  -5.8311  -5.7683  -4.9088  -4.2511  -4.1439
    -3.4992  -0.8038

[...]

     total energy              =   -1231.98869406 Ry
     estimated scf accuracy    <    1064.38625003 Ry

     iteration # 54     ecut=    60.00 Ry     beta= 0.50
     Davidson diagonalization with overlap
     ethr =  2.61E-03,  avg # of iterations =  3.4

     negative rho (up, down):  9.569E-01 0.000E+00

     total cpu time spent up to now is     1047.8 secs

     total energy              =   -1233.30152313 Ry
     estimated scf accuracy    <    1048.69710100 Ry

     iteration # 55     ecut=    60.00 Ry     beta= 0.50
     Davidson diagonalization with overlap
     ethr =  2.61E-03,  avg # of iterations =  7.5

     negative rho (up, down):  9.106E-01 0.000E+00

     total cpu time spent up to now is     1051.4 secs

     total energy              =   -1229.23360276 Ry
     estimated scf accuracy    <    1682.32999829 Ry

     iteration # 56     ecut=    60.00 Ry     beta= 0.50
     Davidson diagonalization with overlap
     ethr =  2.61E-03,  avg # of iterations =  6.0

     negative rho (up, down):  8.352E-01 0.000E+00

     total cpu time spent up to now is     1054.5 secs

     total energy              =   -1227.41585142 Ry
     estimated scf accuracy    <     861.31657825 Ry

     iteration # 57     ecut=    60.00 Ry     beta= 0.50
     Davidson diagonalization with overlap
     ethr =  2.61E-03,  avg # of iterations =  5.3

     negative rho (up, down):  8.063E-01 0.000E+00

     total cpu time spent up to now is     1058.8 secs

     total energy              =   -1229.46284893 Ry
     estimated scf accuracy    <      69.17276202 Ry

     iteration # 58     ecut=    60.00 Ry     beta= 0.50
     Davidson diagonalization with overlap
     ethr =  2.61E-03,  avg # of iterations =  6.0

     negative rho (up, down):  7.199E-01 0.000E+00

     total cpu time spent up to now is     1066.2 secs

     total energy              =   -1225.02636847 Ry
     estimated scf accuracy    <    1503.75440648 Ry

     iteration # 59     ecut=    60.00 Ry     beta= 0.50
     Davidson diagonalization with overlap
     ethr =  2.61E-03,  avg # of iterations =  7.0

     negative rho (up, down):  6.753E-01 0.000E+00

     total cpu time spent up to now is     1074.0 secs

     total energy              =   -1226.94453534 Ry
     estimated scf accuracy    <      20.40350877 Ry

     iteration # 60     ecut=    60.00 Ry     beta= 0.50
     Davidson diagonalization with overlap
     ethr =  2.61E-03,  avg # of iterations =  5.0

     negative rho (up, down):  6.355E-01 0.000E+00

     total cpu time spent up to now is     1082.0 secs

     total energy              =   -1227.86296458 Ry
     estimated scf accuracy    <      11.77982055 Ry

     iteration # 61     ecut=    60.00 Ry     beta= 0.50
     Davidson diagonalization with overlap
     ethr =  2.61E-03,  avg # of iterations =  3.6

     negative rho (up, down):  6.638E-01 0.000E+00

     total cpu time spent up to now is     1089.3 secs

     total energy              =   -1228.57390159 Ry
     estimated scf accuracy    <       1.08659544 Ry

     iteration # 62     ecut=    60.00 Ry     beta= 0.50
     Davidson diagonalization with overlap
     ethr =  2.61E-03,  avg # of iterations =  3.0

     negative rho (up, down):  6.555E-01 0.000E+00

     total cpu time spent up to now is     1095.3 secs

     total energy              =   -1228.77962517 Ry
     estimated scf accuracy    <      12.29820772 Ry

     iteration # 63     ecut=    60.00 Ry     beta= 0.50
     Davidson diagonalization with overlap
     ethr =  2.61E-03,  avg # of iterations =  1.9

     negative rho (up, down):  6.273E-01 0.000E+00

     total cpu time spent up to now is     1101.0 secs

     total energy              =   -1228.57756073 Ry
     estimated scf accuracy    <      14.57157779 Ry

     iteration # 64     ecut=    60.00 Ry     beta= 0.50
     Davidson diagonalization with overlap
     ethr =  2.61E-03,  avg # of iterations =  2.4

     negative rho (up, down):  5.818E-01 0.000E+00

     total cpu time spent up to now is     1107.5 secs

     total energy              =   -1228.48827459 Ry
     estimated scf accuracy    <       4.57224007 Ry

     iteration # 65     ecut=    60.00 Ry     beta= 0.50
     Davidson diagonalization with overlap
     ethr =  2.61E-03,  avg # of iterations =  2.6

     negative rho (up, down):  5.657E-01 0.000E+00

     total cpu time spent up to now is     1114.3 secs

     total energy              =   -1228.53455139 Ry
     estimated scf accuracy    <       1.00601366 Ry

     iteration # 66     ecut=    60.00 Ry     beta= 0.50
     Davidson diagonalization with overlap
     ethr =  2.61E-03,  avg # of iterations =  1.9

     negative rho (up, down):  5.664E-01 0.000E+00

     total cpu time spent up to now is     1122.4 secs

     total energy              =   -1228.58209746 Ry
     estimated scf accuracy    <       0.70802378 Ry

     iteration # 67     ecut=    60.00 Ry     beta= 0.50
     Davidson diagonalization with overlap
     ethr =  1.97E-03,  avg # of iterations =  1.0

     negative rho (up, down):  5.641E-01 0.000E+00

     total cpu time spent up to now is     1129.9 secs

     total energy              =   -1228.60756607 Ry
     estimated scf accuracy    <       0.70934599 Ry

     iteration # 68     ecut=    60.00 Ry     beta= 0.50
     Davidson diagonalization with overlap
     ethr =  1.97E-03,  avg # of iterations =  1.0

     negative rho (up, down):  5.758E-01 0.000E+00

     total cpu time spent up to now is     1136.6 secs

     total energy              =   -1228.52849737 Ry
     estimated scf accuracy    <       0.76833823 Ry

     iteration # 69     ecut=    60.00 Ry     beta= 0.50
     Davidson diagonalization with overlap
     ethr =  1.97E-03,  avg # of iterations =  2.0

     negative rho (up, down):  5.866E-01 0.000E+00

     total cpu time spent up to now is     1143.8 secs

     total energy              =   -1228.54151759 Ry
     estimated scf accuracy    <       0.77823878 Ry

     iteration # 70     ecut=    60.00 Ry     beta= 0.50
     Davidson diagonalization with overlap
     ethr =  1.97E-03,  avg # of iterations =  1.0

     negative rho (up, down):  6.046E-01 0.000E+00

     total cpu time spent up to now is     1147.4 secs

     total energy              =   -1228.48413513 Ry
     estimated scf accuracy    <       0.65041439 Ry

     iteration # 71     ecut=    60.00 Ry     beta= 0.50
     Davidson diagonalization with overlap
     ethr =  1.81E-03,  avg # of iterations =  2.0

     negative rho (up, down):  5.954E-01 0.000E+00

     total cpu time spent up to now is     1151.5 secs

     total energy              =   -1228.49265108 Ry
     estimated scf accuracy    <       1.13634816 Ry

     iteration # 72     ecut=    60.00 Ry     beta= 0.50
     Davidson diagonalization with overlap
     ethr =  1.81E-03,  avg # of iterations =  1.0

     negative rho (up, down):  5.383E-01 0.000E+00

     total cpu time spent up to now is     1155.4 secs

     total energy              =   -1228.44731147 Ry
     estimated scf accuracy    <       0.75743858 Ry

     iteration # 73     ecut=    60.00 Ry     beta= 0.50
     Davidson diagonalization with overlap
     ethr =  1.81E-03,  avg # of iterations =  2.0

     negative rho (up, down):  5.078E-01 0.000E+00

     total cpu time spent up to now is     1157.3 secs

     total energy              =   -1228.43383719 Ry
     estimated scf accuracy    <       0.59937891 Ry

     iteration # 74     ecut=    60.00 Ry     beta= 0.50
     Davidson diagonalization with overlap
     ethr =  1.66E-03,  avg # of iterations =  3.2

     negative rho (up, down):  5.200E-01 0.000E+00

     total cpu time spent up to now is     1159.0 secs

     total energy              =   -1228.51525804 Ry
     estimated scf accuracy    <       0.80315503 Ry

     iteration # 75     ecut=    60.00 Ry     beta= 0.50
     Davidson diagonalization with overlap
     ethr =  1.66E-03,  avg # of iterations =  1.9

     negative rho (up, down):  5.530E-01 0.000E+00

     total cpu time spent up to now is     1160.6 secs

     total energy              =   -1228.55247619 Ry
     estimated scf accuracy    <       0.93765722 Ry

     iteration # 76     ecut=    60.00 Ry     beta= 0.50
     Davidson diagonalization with overlap
     ethr =  1.66E-03,  avg # of iterations =  2.0

     negative rho (up, down):  5.894E-01 0.000E+00

     total cpu time spent up to now is     1162.8 secs

     total energy              =   -1228.56605402 Ry
     estimated scf accuracy    <       1.08602935 Ry

     iteration # 77     ecut=    60.00 Ry     beta= 0.50
     Davidson diagonalization with overlap
     ethr =  1.66E-03,  avg # of iterations =  1.4

     negative rho (up, down):  5.906E-01 0.000E+00

     total cpu time spent up to now is     1165.6 secs

     total energy              =   -1228.56697850 Ry
     estimated scf accuracy    <       1.07112769 Ry

     iteration # 78     ecut=    60.00 Ry     beta= 0.50
     Davidson diagonalization with overlap
     ethr =  1.66E-03,  avg # of iterations =  1.0

     negative rho (up, down):  5.098E-01 0.000E+00

     total cpu time spent up to now is     1168.3 secs

     total energy              =   -1228.50484720 Ry
     estimated scf accuracy    <       1.00992850 Ry

     iteration # 79     ecut=    60.00 Ry     beta= 0.50
     Davidson diagonalization with overlap
     ethr =  1.66E-03,  avg # of iterations =  2.0

     negative rho (up, down):  5.393E-01 0.000E+00

     total cpu time spent up to now is     1171.4 secs

     total energy              =   -1228.54914389 Ry
     estimated scf accuracy    <       0.74597692 Ry

     iteration # 80     ecut=    60.00 Ry     beta= 0.50
     Davidson diagonalization with overlap
     ethr =  1.66E-03,  avg # of iterations =  1.0

     negative rho (up, down):  2.455E-01 0.000E+00

     total cpu time spent up to now is     1174.2 secs

     total energy              =   -1228.50269684 Ry
     estimated scf accuracy    <       0.78035673 Ry

     iteration # 81     ecut=    60.00 Ry     beta= 0.50
     Davidson diagonalization with overlap
     ethr =  1.66E-03,  avg # of iterations =  2.5

     negative rho (up, down):  2.563E-01 0.000E+00

     total cpu time spent up to now is     1177.4 secs

     total energy              =   -1228.37302993 Ry
     estimated scf accuracy    <       0.37843350 Ry

     iteration # 82     ecut=    60.00 Ry     beta= 0.50
     Davidson diagonalization with overlap
     ethr =  1.05E-03,  avg # of iterations =  2.7

     negative rho (up, down):  3.792E-01 0.000E+00

     total cpu time spent up to now is     1181.0 secs

     total energy              =   -1228.51121498 Ry
     estimated scf accuracy    <       0.31869310 Ry

     iteration # 83     ecut=    60.00 Ry     beta= 0.50
     Davidson diagonalization with overlap
     ethr =  8.85E-04,  avg # of iterations =  2.0

     negative rho (up, down):  2.039E-01 0.000E+00

     total cpu time spent up to now is     1184.6 secs

     total energy              =   -1228.47265489 Ry
     estimated scf accuracy    <       0.50837924 Ry

     iteration # 84     ecut=    60.00 Ry     beta= 0.50
     Davidson diagonalization with overlap
     ethr =  8.85E-04,  avg # of iterations =  2.4

     negative rho (up, down):  3.120E-02 0.000E+00

     total cpu time spent up to now is     1188.4 secs

     total energy              =   -1228.51759191 Ry
     estimated scf accuracy    <       0.23959965 Ry

     iteration # 85     ecut=    60.00 Ry     beta= 0.50
     Davidson diagonalization with overlap
     ethr =  6.66E-04,  avg # of iterations =  1.3

     negative rho (up, down):  1.045E-02 0.000E+00

     total cpu time spent up to now is     1191.6 secs

     total energy              =   -1228.49409328 Ry
     estimated scf accuracy    <       0.04267904 Ry

     iteration # 86     ecut=    60.00 Ry     beta= 0.50
     Davidson diagonalization with overlap
     ethr =  1.19E-04,  avg # of iterations =  3.1

     negative rho (up, down):  1.102E-02 0.000E+00

     total cpu time spent up to now is     1195.7 secs

     total energy              =   -1228.50850881 Ry
     estimated scf accuracy    <       0.00907947 Ry

     iteration # 87     ecut=    60.00 Ry     beta= 0.50
     Davidson diagonalization with overlap
     ethr =  2.52E-05,  avg # of iterations =  2.0

     negative rho (up, down):  8.185E-03 0.000E+00

     total cpu time spent up to now is     1199.3 secs

     total energy              =   -1228.50600528 Ry
     estimated scf accuracy    <       0.00696939 Ry

     iteration # 88     ecut=    60.00 Ry     beta= 0.50
     Davidson diagonalization with overlap
     ethr =  1.94E-05,  avg # of iterations =  2.4

     negative rho (up, down):  5.530E-03 0.000E+00

     total cpu time spent up to now is     1202.6 secs

     total energy              =   -1228.50369339 Ry
     estimated scf accuracy    <       0.00365595 Ry

     iteration # 89     ecut=    60.00 Ry     beta= 0.50
     Davidson diagonalization with overlap
     ethr =  1.02E-05,  avg # of iterations =  2.4

     negative rho (up, down):  4.880E-03 0.000E+00

     total cpu time spent up to now is     1204.9 secs

     total energy              =   -1228.50479250 Ry
     estimated scf accuracy    <       0.00103715 Ry

     iteration # 90     ecut=    60.00 Ry     beta= 0.50
     Davidson diagonalization with overlap
     ethr =  2.88E-06,  avg # of iterations =  4.5

     negative rho (up, down):  4.473E-03 0.000E+00

     total cpu time spent up to now is     1207.6 secs

     total energy              =   -1228.50495225 Ry
     estimated scf accuracy    <       0.00069688 Ry

     iteration # 91     ecut=    60.00 Ry     beta= 0.50
     Davidson diagonalization with overlap
     ethr =  1.94E-06,  avg # of iterations =  2.2

     negative rho (up, down):  4.009E-03 0.000E+00

     total cpu time spent up to now is     1211.3 secs

     total energy              =   -1228.50489001 Ry
     estimated scf accuracy    <       0.00020718 Ry

     iteration # 92     ecut=    60.00 Ry     beta= 0.50
     Davidson diagonalization with overlap
     ethr =  5.75E-07,  avg # of iterations =  4.8

     negative rho (up, down):  3.311E-03 0.000E+00

     total cpu time spent up to now is     1216.0 secs

     total energy              =   -1228.50482425 Ry
     estimated scf accuracy    <       0.00034535 Ry

     iteration # 93     ecut=    60.00 Ry     beta= 0.50
     Davidson diagonalization with overlap
     ethr =  5.75E-07,  avg # of iterations =  4.0

     negative rho (up, down):  2.949E-03 0.000E+00

     total cpu time spent up to now is     1220.2 secs

     total energy              =   -1228.50488522 Ry
     estimated scf accuracy    <       0.00004993 Ry

     iteration # 94     ecut=    60.00 Ry     beta= 0.50
     Davidson diagonalization with overlap
     ethr =  1.39E-07,  avg # of iterations =  3.1

     negative rho (up, down):  2.852E-03 0.000E+00

     total cpu time spent up to now is     1224.2 secs

     total energy              =   -1228.50490513 Ry
     estimated scf accuracy    <       0.00001163 Ry

     iteration # 95     ecut=    60.00 Ry     beta= 0.50
     Davidson diagonalization with overlap
     ethr =  3.23E-08,  avg # of iterations =  5.0

     negative rho (up, down):  2.785E-03 0.000E+00

     total cpu time spent up to now is     1228.9 secs

     total energy              =   -1228.50490493 Ry
     estimated scf accuracy    <       0.00001597 Ry

     iteration # 96     ecut=    60.00 Ry     beta= 0.50
     Davidson diagonalization with overlap
     ethr =  3.23E-08,  avg # of iterations =  3.2

     negative rho (up, down):  2.771E-03 0.000E+00

     total cpu time spent up to now is     1232.9 secs

     total energy              =   -1228.50490757 Ry
     estimated scf accuracy    <       0.00000436 Ry

     iteration # 97     ecut=    60.00 Ry     beta= 0.50
     Davidson diagonalization with overlap
     ethr =  1.21E-08,  avg # of iterations =  4.4

     negative rho (up, down):  2.789E-03 0.000E+00

     total cpu time spent up to now is     1237.1 secs

     total energy              =   -1228.50490733 Ry
     estimated scf accuracy    <       0.00000309 Ry

     iteration # 98     ecut=    60.00 Ry     beta= 0.50
     Davidson diagonalization with overlap
     ethr =  8.57E-09,  avg # of iterations =  3.1

     negative rho (up, down):  2.806E-03 0.000E+00

     total cpu time spent up to now is     1241.1 secs

     total energy              =   -1228.50490773 Ry
     estimated scf accuracy    <       0.00000055 Ry

     iteration # 99     ecut=    60.00 Ry     beta= 0.50
     Davidson diagonalization with overlap
     ethr =  1.52E-09,  avg # of iterations =  5.2

     negative rho (up, down):  2.795E-03 0.000E+00

     total cpu time spent up to now is     1246.0 secs

     total energy              =   -1228.50490764 Ry
     estimated scf accuracy    <       0.00000093 Ry

     iteration #100     ecut=    60.00 Ry     beta= 0.50
     Davidson diagonalization with overlap
     ethr =  1.52E-09,  avg # of iterations =  4.3

     negative rho (up, down):  2.801E-03 0.000E+00

     total cpu time spent up to now is     1250.4 secs

     total energy              =   -1228.50490784 Ry
     estimated scf accuracy    <       0.00000012 Ry

     End of self-consistent calculation

     convergence NOT achieved after 100 iterations: stopping

     Writing config to output data dir ./work/WSSe.save/

     init_run     :      3.59s CPU      3.95s WALL (       1 calls)
     electrons    :   1175.20s CPU   1218.75s WALL (       4 calls)
     update_pot   :      7.81s CPU      7.84s WALL (       3 calls)
     forces       :      5.16s CPU      5.18s WALL (       3 calls)
     stress       :     12.19s CPU     12.21s WALL (       3 calls)

     Called by init_run:
     wfcinit      :      1.29s CPU      1.43s WALL (       1 calls)
     potinit      :      0.77s CPU      0.83s WALL (       1 calls)
     hinit0       :      1.29s CPU      1.36s WALL (       1 calls)

     Called by electrons:
     c_bands      :    917.00s CPU    952.17s WALL (     245 calls)
     sum_band     :    161.97s CPU    167.99s WALL (     245 calls)
     v_of_rho     :      6.43s CPU      6.88s WALL (     248 calls)
     newd         :     43.65s CPU     44.24s WALL (     248 calls)
     PAW_pot      :     44.98s CPU     46.19s WALL (     251 calls)
     mix_rho      :      2.95s CPU      3.00s WALL (     245 calls)

     Called by c_bands:
     init_us_2    :      9.68s CPU      9.94s WALL (    9500 calls)
     init_us_2:cp :      9.62s CPU      9.91s WALL (    9500 calls)
     cegterg      :    883.76s CPU    918.11s WALL (    4655 calls)

     Called by *egterg:
     cdiaghg      :     12.29s CPU     12.49s WALL (   24206 calls)
     h_psi        :    535.75s CPU    566.65s WALL (   24301 calls)
     s_psi        :     40.61s CPU     41.32s WALL (   24301 calls)
     g_psi        :      1.09s CPU      1.11s WALL (   19627 calls)

     Called by h_psi:
     h_psi:calbec :     94.47s CPU     97.92s WALL (   24301 calls)
     vloc_psi     :    391.98s CPU    418.52s WALL (   24301 calls)
     add_vuspsi   :     46.50s CPU     47.42s WALL (   24301 calls)

     General routines
     calbec       :    130.48s CPU    134.86s WALL (   29298 calls)
     fft          :      6.18s CPU      6.41s WALL (    2808 calls)
     ffts         :      0.31s CPU      0.32s WALL (     245 calls)
     fftw         :    434.23s CPU    463.07s WALL (  558172 calls)
     davcio       :      0.00s CPU      0.02s WALL (      37 calls)

     Parallel routines

     PWSCF        :  20m 6.36s CPU  20m50.51s WALL


   This run was terminated on:  12:48:27  30Jan2023            

=------------------------------------------------------------------------------=
   JOB DONE.
=------------------------------------------------------------------------------=
