
     Program PWSCF v.7.1 starts on 30Jan2023 at 11:10:53 

     This program is part of the open-source Quantum ESPRESSO suite
     for quantum simulation of materials; please cite
         "P. Giannozzi et al., J. Phys.:Condens. Matter 21 395502 (2009);
         "P. Giannozzi et al., J. Phys.:Condens. Matter 29 465901 (2017);
         "P. Giannozzi et al., J. Chem. Phys. 152 154105 (2020);
          URL http://www.quantum-espresso.org", 
     in publications or presentations arising from this work. More details at
     http://www.quantum-espresso.org/quote

     Parallel version (MPI), running on    12 processors

     MPI processes distributed on     1 nodes
     122184 MiB available memory on the printing compute node when the environment starts

     Waiting for input...
     Reading input from standard input

     Current dimensions of program PWSCF are:
     Max number of different atomic species (ntypx) = 10
     Max number of k-points (npk) =  40000
     Max angular momentum in pseudopotentials (lmaxx) =  4
     file W.pbe-spn-kjpaw_psl.1.0.0.UPF: wavefunction(s)  6S 5P 5D renormalized
     file S.pbe-n-kjpaw_psl.1.0.0.UPF: wavefunction(s)  3S 3P renormalized
     file Se.pbe-dn-kjpaw_psl.1.0.0.UPF: wavefunction(s)  4S 4P 3D renormalized
     Message from routine setup:
     using ibrav=0 with symmetry is DISCOURAGED, use correct ibrav instead

     R & G space division:  proc/nbgrp/npool/nimage =      12
     Subspace diagonalization in iterative solution of the eigenvalue problem:
     a serial algorithm will be used


     Parallelization info
     --------------------
     sticks:   dense  smooth     PW     G-vecs:    dense   smooth      PW
     Min          49      49     14                 7803     7803    1233
     Max          50      50     19                 7838     7838    1244
     Sum         595     595    187                93827    93827   14845

     Using Slab Decomposition



     bravais-lattice index     =            0
     lattice parameter (alat)  =       6.0471  a.u.
     unit-cell volume          =    1496.1227 (a.u.)^3
     number of atoms/cell      =            3
     number of atomic types    =            3
     number of electrons       =        36.00
     number of Kohn-Sham states=           18
     kinetic-energy cutoff     =      60.0000  Ry
     charge density cutoff     =     240.0000  Ry
     scf convergence threshold =      1.0E-08
     mixing beta               =       0.5000
     number of iterations used =            8  plain     mixing
     Exchange-correlation= SLA  PW   PBX  PBC
                           (   1   4   3   4   0   0   0)

     celldm(1)=   6.047124  celldm(2)=   0.000000  celldm(3)=   0.000000
     celldm(4)=   0.000000  celldm(5)=   0.000000  celldm(6)=   0.000000

     crystal axes: (cart. coord. in units of alat)
               a(1) = (   1.000000   0.000000   0.000000 )  
               a(2) = (  -0.500000   0.866025   0.000000 )  
               a(3) = (   0.000000   0.000000   7.812500 )  

     reciprocal axes: (cart. coord. in units 2 pi/alat)
               b(1) = (  1.000000  0.577350 -0.000000 )  
               b(2) = (  0.000000  1.154701  0.000000 )  
               b(3) = (  0.000000 -0.000000  0.128000 )  


     PseudoPot. # 1 for W  read from file:
     /home/mainadmin/research/danu/pseudo/W.pbe-spn-kjpaw_psl.1.0.0.UPF
     MD5 check sum: 03c3df5b60893f488392c7401945500a
     Pseudo is Projector augmented-wave + core cor, Zval = 14.0
     Generated using &quot;atomic&quot; code by A. Dal Corso  v.6.2.2
     Shape of augmentation charge: PSQ
     Using radial grid of 1273 points,  6 beta functions with: 
                l(1) =   0
                l(2) =   0
                l(3) =   1
                l(4) =   1
                l(5) =   2
                l(6) =   2
     Q(r) pseudized with 0 coefficients 


     PseudoPot. # 2 for S  read from file:
     /home/mainadmin/research/danu/pseudo/S.pbe-n-kjpaw_psl.1.0.0.UPF
     MD5 check sum: fb45dfebcf3e72a4e1bd4a866ec2e262
     Pseudo is Projector augmented-wave + core cor, Zval =  6.0
     Generated using &quot;atomic&quot; code by A. Dal Corso  v.6.3
     Shape of augmentation charge: PSQ
     Using radial grid of 1151 points,  6 beta functions with: 
                l(1) =   0
                l(2) =   0
                l(3) =   1
                l(4) =   1
                l(5) =   2
                l(6) =   2
     Q(r) pseudized with 0 coefficients 


     PseudoPot. # 3 for Se read from file:
     /home/mainadmin/research/danu/pseudo/Se.pbe-dn-kjpaw_psl.1.0.0.UPF
     MD5 check sum: ac240dd2bae32a30e0bf3a38df9c8785
     Pseudo is Projector augmented-wave + core cor, Zval = 16.0
     Generated using &quot;atomic&quot; code by A. Dal Corso  v.6.3
     Shape of augmentation charge: PSQ
     Using radial grid of 1211 points,  6 beta functions with: 
                l(1) =   0
                l(2) =   0
                l(3) =   1
                l(4) =   1
                l(5) =   2
                l(6) =   2
     Q(r) pseudized with 0 coefficients 


     atomic species   valence    mass     pseudopotential
        W             14.00   183.84000     W ( 1.00)
        S              6.00    32.06500     S ( 1.00)
        Se            16.00    78.96000     Se( 1.00)

      6 Sym. Ops. (no inversion) found



   Cartesian axes

     site n.     atom                  positions (alat units)
         1           Se  tau(   1) = (   0.5000000   0.2886751   4.5312500  )
         2           W   tau(   2) = (  -0.0000000   0.5773503   3.9062500  )
         3           S   tau(   3) = (   0.5000000   0.2886751  -4.5312500  )

     number of k points=    30
                       cart. coord. in units 2pi/alat
        k(    1) = (   0.0000000   0.0000000   0.0000000), wk =   0.0078125
        k(    2) = (   0.0000000   0.0721688   0.0000000), wk =   0.0468750
        k(    3) = (   0.0000000   0.1443376   0.0000000), wk =   0.0468750
        k(    4) = (   0.0000000   0.2165064   0.0000000), wk =   0.0468750
        k(    5) = (   0.0000000   0.2886751   0.0000000), wk =   0.0468750
        k(    6) = (   0.0000000   0.3608439   0.0000000), wk =   0.0468750
        k(    7) = (   0.0000000   0.4330127   0.0000000), wk =   0.0468750
        k(    8) = (   0.0000000   0.5051815   0.0000000), wk =   0.0468750
        k(    9) = (   0.0000000  -0.5773503   0.0000000), wk =   0.0234375
        k(   10) = (   0.0625000   0.1082532   0.0000000), wk =   0.0468750
        k(   11) = (   0.0625000   0.1804220   0.0000000), wk =   0.0937500
        k(   12) = (   0.0625000   0.2525907   0.0000000), wk =   0.0937500
        k(   13) = (   0.0625000   0.3247595   0.0000000), wk =   0.0937500
        k(   14) = (   0.0625000   0.3969283   0.0000000), wk =   0.0937500
        k(   15) = (   0.0625000   0.4690971   0.0000000), wk =   0.0937500
        k(   16) = (   0.0625000   0.5412659   0.0000000), wk =   0.0937500
        k(   17) = (   0.1250000   0.2165064   0.0000000), wk =   0.0468750
        k(   18) = (   0.1250000   0.2886751   0.0000000), wk =   0.0937500
        k(   19) = (   0.1250000   0.3608439   0.0000000), wk =   0.0937500
        k(   20) = (   0.1250000   0.4330127   0.0000000), wk =   0.0937500
        k(   21) = (   0.1250000   0.5051815   0.0000000), wk =   0.0937500
        k(   22) = (   0.1250000   0.5773503   0.0000000), wk =   0.0468750
        k(   23) = (   0.1875000   0.3247595   0.0000000), wk =   0.0468750
        k(   24) = (   0.1875000   0.3969283   0.0000000), wk =   0.0937500
        k(   25) = (   0.1875000   0.4690971   0.0000000), wk =   0.0937500
        k(   26) = (   0.1875000   0.5412659   0.0000000), wk =   0.0937500
        k(   27) = (   0.2500000   0.4330127   0.0000000), wk =   0.0468750
        k(   28) = (   0.2500000   0.5051815   0.0000000), wk =   0.0937500
        k(   29) = (   0.2500000   0.5773503   0.0000000), wk =   0.0468750
        k(   30) = (   0.3125000   0.5412659   0.0000000), wk =   0.0468750

     Dense  grid:    93827 G-vectors     FFT dimensions: (  30,  30, 240)

     Estimated max dynamical RAM per process >      40.16 MB

     Estimated total dynamical RAM >     481.88 MB

     Check: negative core charge=   -0.000001

     Initial potential from superposition of free atoms

     starting charge      35.9993, renormalised to      36.0000

     negative rho (up, down):  5.774E-04 0.000E+00
     Starting wfcs are   26 randomized atomic wfcs
     Checking if some PAW data can be deallocated... 

     total cpu time spent up to now is        1.5 secs

     Self-consistent Calculation

     iteration #  1     ecut=    60.00 Ry     beta= 0.50
     Davidson diagonalization with overlap
     ethr =  1.00E-02,  avg # of iterations =  2.0

     Threshold (ethr) on eigenvalues was too large:
     Diagonalizing with lowered threshold

     Davidson diagonalization with overlap
     ethr =  4.62E-04,  avg # of iterations =  2.1

     negative rho (up, down):  1.089E-03 0.000E+00

     total cpu time spent up to now is        3.8 secs

     total energy              =   -1228.30571294 Ry
     estimated scf accuracy    <       0.16882665 Ry

     iteration #  2     ecut=    60.00 Ry     beta= 0.50
     Davidson diagonalization with overlap
     ethr =  4.69E-04,  avg # of iterations =  8.3

     negative rho (up, down):  1.373E-03 0.000E+00

     total cpu time spent up to now is        5.7 secs

     total energy              =   -1228.07498764 Ry
     estimated scf accuracy    <       4.15085465 Ry

     iteration #  3     ecut=    60.00 Ry     beta= 0.50
     Davidson diagonalization with overlap
     ethr =  4.69E-04,  avg # of iterations =  7.7

     negative rho (up, down):  4.108E-03 0.000E+00

     total cpu time spent up to now is        7.5 secs

     total energy              =   -1228.37184798 Ry
     estimated scf accuracy    <       0.05260677 Ry

     iteration #  4     ecut=    60.00 Ry     beta= 0.50
     Davidson diagonalization with overlap
     ethr =  1.46E-04,  avg # of iterations =  4.5

     negative rho (up, down):  7.604E-03 0.000E+00

     total cpu time spent up to now is        9.0 secs

     total energy              =   -1228.37503599 Ry
     estimated scf accuracy    <       0.09878334 Ry

     iteration #  5     ecut=    60.00 Ry     beta= 0.50
     Davidson diagonalization with overlap
     ethr =  1.46E-04,  avg # of iterations =  3.5

     negative rho (up, down):  1.531E-02 0.000E+00

     total cpu time spent up to now is       10.3 secs

     total energy              =   -1228.38541059 Ry
     estimated scf accuracy    <       0.01584124 Ry

     iteration #  6     ecut=    60.00 Ry     beta= 0.50
     Davidson diagonalization with overlap
     ethr =  4.40E-05,  avg # of iterations =  3.7

     negative rho (up, down):  3.703E-03 0.000E+00

     total cpu time spent up to now is       11.7 secs

     total energy              =   -1228.36981541 Ry
     estimated scf accuracy    <       0.01703328 Ry

     iteration #  7     ecut=    60.00 Ry     beta= 0.50
     Davidson diagonalization with overlap
     ethr =  4.40E-05,  avg # of iterations =  4.9

     negative rho (up, down):  7.211E-03 0.000E+00

     total cpu time spent up to now is       13.2 secs

     total energy              =   -1228.38111283 Ry
     estimated scf accuracy    <       0.03059051 Ry

     iteration #  8     ecut=    60.00 Ry     beta= 0.50
     Davidson diagonalization with overlap
     ethr =  4.40E-05,  avg # of iterations =  2.0

     negative rho (up, down):  1.846E-03 0.000E+00

     total cpu time spent up to now is       14.4 secs

     total energy              =   -1228.37785243 Ry
     estimated scf accuracy    <       0.02099772 Ry

     iteration #  9     ecut=    60.00 Ry     beta= 0.50
     Davidson diagonalization with overlap
     ethr =  4.40E-05,  avg # of iterations =  2.0

     negative rho (up, down):  8.116E-04 0.000E+00

     total cpu time spent up to now is       15.7 secs

     total energy              =   -1228.37765311 Ry
     estimated scf accuracy    <       0.01146579 Ry

     iteration # 10     ecut=    60.00 Ry     beta= 0.50
     Davidson diagonalization with overlap
     ethr =  3.18E-05,  avg # of iterations =  3.6

     negative rho (up, down):  7.527E-04 0.000E+00

     total cpu time spent up to now is       17.1 secs

     total energy              =   -1228.37913932 Ry
     estimated scf accuracy    <       0.00049041 Ry

     iteration # 11     ecut=    60.00 Ry     beta= 0.50
     Davidson diagonalization with overlap
     ethr =  1.36E-06,  avg # of iterations =  5.8

     negative rho (up, down):  7.568E-04 0.000E+00

     total cpu time spent up to now is       18.7 secs

     total energy              =   -1228.37914696 Ry
     estimated scf accuracy    <       0.00082046 Ry

     iteration # 12     ecut=    60.00 Ry     beta= 0.50
     Davidson diagonalization with overlap
     ethr =  1.36E-06,  avg # of iterations =  4.7

     negative rho (up, down):  7.450E-04 0.000E+00

     total cpu time spent up to now is       20.1 secs

     total energy              =   -1228.37927264 Ry
     estimated scf accuracy    <       0.00016623 Ry

     iteration # 13     ecut=    60.00 Ry     beta= 0.50
     Davidson diagonalization with overlap
     ethr =  4.62E-07,  avg # of iterations =  2.2

     negative rho (up, down):  7.432E-04 0.000E+00

     total cpu time spent up to now is       21.3 secs

     total energy              =   -1228.37926363 Ry
     estimated scf accuracy    <       0.00006680 Ry

     iteration # 14     ecut=    60.00 Ry     beta= 0.50
     Davidson diagonalization with overlap
     ethr =  1.86E-07,  avg # of iterations =  4.8

     negative rho (up, down):  7.452E-04 0.000E+00

     total cpu time spent up to now is       22.8 secs

     total energy              =   -1228.37928262 Ry
     estimated scf accuracy    <       0.00003969 Ry

     iteration # 15     ecut=    60.00 Ry     beta= 0.50
     Davidson diagonalization with overlap
     ethr =  1.10E-07,  avg # of iterations =  1.0

     negative rho (up, down):  7.453E-04 0.000E+00

     total cpu time spent up to now is       23.8 secs

     total energy              =   -1228.37927962 Ry
     estimated scf accuracy    <       0.00002975 Ry

     iteration # 16     ecut=    60.00 Ry     beta= 0.50
     Davidson diagonalization with overlap
     ethr =  8.26E-08,  avg # of iterations =  2.6

     negative rho (up, down):  7.459E-04 0.000E+00

     total cpu time spent up to now is       25.3 secs

     total energy              =   -1228.37927874 Ry
     estimated scf accuracy    <       0.00000904 Ry

     iteration # 17     ecut=    60.00 Ry     beta= 0.50
     Davidson diagonalization with overlap
     ethr =  2.51E-08,  avg # of iterations =  5.2

     negative rho (up, down):  7.459E-04 0.000E+00

     total cpu time spent up to now is       26.8 secs

     total energy              =   -1228.37928130 Ry
     estimated scf accuracy    <       0.00000532 Ry

     iteration # 18     ecut=    60.00 Ry     beta= 0.50
     Davidson diagonalization with overlap
     ethr =  1.48E-08,  avg # of iterations =  1.1

     negative rho (up, down):  7.446E-04 0.000E+00

     total cpu time spent up to now is       27.9 secs

     total energy              =   -1228.37928102 Ry
     estimated scf accuracy    <       0.00000396 Ry

     iteration # 19     ecut=    60.00 Ry     beta= 0.50
     Davidson diagonalization with overlap
     ethr =  1.10E-08,  avg # of iterations =  1.6

     negative rho (up, down):  7.450E-04 0.000E+00

     total cpu time spent up to now is       29.1 secs

     total energy              =   -1228.37928100 Ry
     estimated scf accuracy    <       0.00000191 Ry

     iteration # 20     ecut=    60.00 Ry     beta= 0.50
     Davidson diagonalization with overlap
     ethr =  5.32E-09,  avg # of iterations =  2.8

     negative rho (up, down):  7.450E-04 0.000E+00

     total cpu time spent up to now is       30.3 secs

     total energy              =   -1228.37928094 Ry
     estimated scf accuracy    <       0.00000077 Ry

     iteration # 21     ecut=    60.00 Ry     beta= 0.50
     Davidson diagonalization with overlap
     ethr =  2.13E-09,  avg # of iterations =  5.0

     negative rho (up, down):  7.465E-04 0.000E+00

     total cpu time spent up to now is       31.8 secs

     total energy              =   -1228.37928111 Ry
     estimated scf accuracy    <       0.00000018 Ry

     iteration # 22     ecut=    60.00 Ry     beta= 0.50
     Davidson diagonalization with overlap
     ethr =  5.13E-10,  avg # of iterations =  3.0

     negative rho (up, down):  7.471E-04 0.000E+00

     total cpu time spent up to now is       33.1 secs

     total energy              =   -1228.37928113 Ry
     estimated scf accuracy    <       0.00000003 Ry

     iteration # 23     ecut=    60.00 Ry     beta= 0.50
     Davidson diagonalization with overlap
     ethr =  8.44E-11,  avg # of iterations =  3.8

     negative rho (up, down):  7.471E-04 0.000E+00

     total cpu time spent up to now is       34.4 secs

     total energy              =   -1228.37928112 Ry
     estimated scf accuracy    <       0.00000006 Ry

     iteration # 24     ecut=    60.00 Ry     beta= 0.50
     Davidson diagonalization with overlap
     ethr =  8.44E-11,  avg # of iterations =  3.4

     negative rho (up, down):  7.472E-04 0.000E+00

     total cpu time spent up to now is       35.7 secs

     total energy              =   -1228.37928113 Ry
     estimated scf accuracy    <       0.00000001 Ry

     iteration # 25     ecut=    60.00 Ry     beta= 0.50
     Davidson diagonalization with overlap
     ethr =  3.18E-11,  avg # of iterations =  1.0

     negative rho (up, down):  7.472E-04 0.000E+00

     total cpu time spent up to now is       36.8 secs

     total energy              =   -1228.37928113 Ry
     estimated scf accuracy    <       0.00000001 Ry

     iteration # 26     ecut=    60.00 Ry     beta= 0.50
     Davidson diagonalization with overlap
     ethr =  3.18E-11,  avg # of iterations =  4.7

     negative rho (up, down):  7.474E-04 0.000E+00

     total cpu time spent up to now is       38.2 secs

     total energy              =   -1228.37928114 Ry
     estimated scf accuracy    <       0.00000007 Ry

     iteration # 27     ecut=    60.00 Ry     beta= 0.50
     Davidson diagonalization with overlap
     ethr =  3.18E-11,  avg # of iterations =  5.2

     negative rho (up, down):  7.475E-04 0.000E+00

     total cpu time spent up to now is       39.7 secs

     total energy              =   -1228.37928118 Ry
     estimated scf accuracy    <       0.00000022 Ry

     iteration # 28     ecut=    60.00 Ry     beta= 0.50
     Davidson diagonalization with overlap
     ethr =  3.18E-11,  avg # of iterations =  6.5

     negative rho (up, down):  7.472E-04 0.000E+00

     total cpu time spent up to now is       41.5 secs

     total energy              =   -1228.37928115 Ry
     estimated scf accuracy    <       0.00000065 Ry

     iteration # 29     ecut=    60.00 Ry     beta= 0.50
     Davidson diagonalization with overlap
     ethr =  3.18E-11,  avg # of iterations =  5.1

     negative rho (up, down):  7.460E-04 0.000E+00

     total cpu time spent up to now is       43.0 secs

     total energy              =   -1228.37928100 Ry
     estimated scf accuracy    <       0.00000035 Ry

     iteration # 30     ecut=    60.00 Ry     beta= 0.50
     Davidson diagonalization with overlap
     ethr =  3.18E-11,  avg # of iterations = 10.5

     negative rho (up, down):  7.464E-04 0.000E+00

     total cpu time spent up to now is       45.3 secs

     total energy              =   -1228.37928109 Ry
     estimated scf accuracy    <       0.00000103 Ry

     iteration # 31     ecut=    60.00 Ry     beta= 0.50
     Davidson diagonalization with overlap
     ethr =  3.18E-11,  avg # of iterations =  7.6

     negative rho (up, down):  7.465E-04 0.000E+00

     total cpu time spent up to now is       47.3 secs

     total energy              =   -1228.37928112 Ry
     estimated scf accuracy    <       0.00000008 Ry

     iteration # 32     ecut=    60.00 Ry     beta= 0.50
     Davidson diagonalization with overlap
     ethr =  3.18E-11,  avg # of iterations =  6.1

     negative rho (up, down):  7.466E-04 0.000E+00

     total cpu time spent up to now is       48.9 secs

     End of self-consistent calculation

          k = 0.0000 0.0000 0.0000 ( 11811 PWs)   bands (ev):

   -75.2381 -48.4208 -48.4208 -48.4174 -48.4159 -48.4159 -39.4088 -39.1503
   -39.1503 -14.9932 -13.8031  -6.8568  -3.7196  -2.1969  -1.8502  -1.8502
    -0.7804  -0.7804

          k = 0.0000 0.0722 0.0000 ( 11803 PWs)   bands (ev):

   -75.2376 -48.4208 -48.4206 -48.4172 -48.4160 -48.4160 -39.4072 -39.1606
   -39.1528 -14.9375 -13.7600  -6.7693  -3.7324  -2.1626  -2.0247  -1.7870
    -0.9232  -0.8811

          k = 0.0000 0.1443 0.0000 ( 11801 PWs)   bands (ev):

   -75.2361 -48.4209 -48.4200 -48.4169 -48.4162 -48.4160 -39.4027 -39.1898
   -39.1598 -14.7737 -13.6335  -6.5164  -3.7747  -2.5092  -2.0741  -1.6101
    -1.3671  -1.1386

          k = 0.0000 0.2165 0.0000 ( 11813 PWs)   bands (ev):

   -75.2339 -48.4210 -48.4191 -48.4167 -48.4162 -48.4159 -39.3960 -39.2334
   -39.1704 -14.5129 -13.4320  -6.1305  -3.8682  -3.1964  -2.0827  -1.9747
    -1.4699  -1.3598

          k = 0.0000 0.2887 0.0000 ( 11777 PWs)   bands (ev):

   -75.2313 -48.4211 -48.4182 -48.4170 -48.4158 -48.4155 -39.3881 -39.2843
   -39.1828 -14.1753 -13.1720  -5.6841  -4.1600  -3.8850  -2.7587  -2.0498
    -1.8014  -1.1197

          k = 0.0000 0.3608 0.0000 ( 11767 PWs)   bands (ev):

   -75.2286 -48.4214 -48.4176 -48.4174 -48.4153 -48.4147 -39.3802 -39.3348
   -39.1952 -13.7951 -12.8800  -5.4036  -4.7910  -4.2994  -3.2180  -2.1635
    -2.0929  -0.9742

          k = 0.0000 0.4330 0.0000 ( 11761 PWs)   bands (ev):

   -75.2264 -48.4216 -48.4178 -48.4174 -48.4147 -48.4140 -39.3776 -39.3732
   -39.2057 -13.4268 -12.5973  -5.8459  -5.0477  -4.5148  -3.4114  -2.3164
    -2.1664  -0.9380

          k = 0.0000 0.5052 0.0000 ( 11723 PWs)   bands (ev):

   -75.2249 -48.4217 -48.4180 -48.4173 -48.4141 -48.4134 -39.4056 -39.3690
   -39.2127 -13.1486 -12.3825  -6.3507  -5.3606  -4.4568  -3.4834  -2.4560
    -2.0450  -0.9514

          k = 0.0000-0.5774 0.0000 ( 11704 PWs)   bands (ev):

   -75.2244 -48.4218 -48.4181 -48.4173 -48.4139 -48.4132 -39.4154 -39.3674
   -39.2152 -13.0432 -12.3003  -6.5430  -5.4927  -4.4315  -3.5023  -2.5035
    -1.9683  -0.9618

          k = 0.0625 0.1083 0.0000 ( 11775 PWs)   bands (ev):

   -75.2366 -48.4208 -48.4202 -48.4170 -48.4161 -48.4159 -39.4042 -39.1801
   -39.1578 -14.8277 -13.6752  -6.5988  -3.7590  -2.3523  -2.0981  -1.6711
    -1.2364  -1.0416

          k = 0.0625 0.1804 0.0000 ( 11807 PWs)   bands (ev):

   -75.2347 -48.4209 -48.4195 -48.4166 -48.4164 -48.4159 -39.3986 -39.2156
   -39.1675 -14.6152 -13.5110  -6.2768  -3.8178  -2.9247  -2.0219  -1.8259
    -1.4749  -1.3151

          k = 0.0625 0.2526 0.0000 ( 11790 PWs)   bands (ev):

   -75.2323 -48.4210 -48.4187 -48.4168 -48.4161 -48.4156 -39.3913 -39.2618
   -39.1801 -14.3154 -13.2796  -5.8497  -3.9541  -3.6281  -2.5511  -2.0201
    -1.6458  -1.2548

          k = 0.0625 0.3248 0.0000 ( 11781 PWs)   bands (ev):

   -75.2297 -48.4211 -48.4180 -48.4172 -48.4158 -48.4149 -39.3834 -39.3113
   -39.1937 -13.9547 -13.0020  -5.4291  -4.4963  -4.0960  -3.1408  -2.1567
    -1.9719  -1.0920

          k = 0.0625 0.3969 0.0000 ( 11760 PWs)   bands (ev):

   -75.2272 -48.4213 -48.4176 -48.4175 -48.4152 -48.4141 -39.3761 -39.3567
   -39.2062 -13.5764 -12.7115  -5.5096  -4.8974  -4.4550  -3.4111  -2.3146
    -2.2084  -1.0504

          k = 0.0625 0.4691 0.0000 ( 11723 PWs)   bands (ev):

   -75.2254 -48.4214 -48.4178 -48.4173 -48.4145 -48.4136 -39.3913 -39.3704
   -39.2157 -13.2467 -12.4576  -6.0805  -5.1768  -4.4638  -3.4871  -2.5103
    -2.1920  -1.0744

          k = 0.0625 0.5413 0.0000 ( 11697 PWs)   bands (ev):

   -75.2244 -48.4215 -48.4180 -48.4173 -48.4140 -48.4133 -39.4099 -39.3674
   -39.2209 -13.0492 -12.3039  -6.4411  -5.4241  -4.4062  -3.5006  -2.6304
    -2.0972  -1.0927

          k = 0.1250 0.2165 0.0000 ( 11775 PWs)   bands (ev):

   -75.2327 -48.4208 -48.4190 -48.4167 -48.4163 -48.4155 -39.3924 -39.2524
   -39.1805 -14.3633 -13.3165  -5.9063  -3.8855  -3.5058  -2.5017  -2.0154
    -1.5664  -1.3325

          k = 0.1250 0.2887 0.0000 ( 11778 PWs)   bands (ev):

   -75.2303 -48.4207 -48.4184 -48.4170 -48.4162 -48.4149 -39.3851 -39.2948
   -39.1966 -14.0384 -13.0659  -5.4637  -4.2248  -3.9502  -3.1877  -2.1739
    -1.8817  -1.2179

          k = 0.1250 0.3608 0.0000 ( 11776 PWs)   bands (ev):

   -75.2278 -48.4208 -48.4179 -48.4173 -48.4159 -48.4142 -39.3778 -39.3365
   -39.2131 -13.6746 -12.7857  -5.1808  -4.7934  -4.2571  -3.5799  -2.4249
    -2.2085  -1.2077

          k = 0.1250 0.4330 0.0000 ( 11728 PWs)   bands (ev):

   -75.2258 -48.4209 -48.4177 -48.4175 -48.4153 -48.4136 -39.3726 -39.3706
   -39.2271 -13.3251 -12.5160  -5.6884  -4.9034  -4.4593  -3.6240  -2.6631
    -2.4446  -1.2510

          k = 0.1250 0.5052 0.0000 ( 11701 PWs)   bands (ev):

   -75.2244 -48.4209 -48.4178 -48.4175 -48.4146 -48.4134 -39.3948 -39.3674
   -39.2364 -13.0634 -12.3125  -6.1575  -5.2299  -4.3510  -3.5586  -2.8962
    -2.5036  -1.2452

          k = 0.1250 0.5774 0.0000 ( 11680 PWs)   bands (ev):

   -75.2239 -48.4209 -48.4178 -48.4175 -48.4142 -48.4133 -39.4029 -39.3659
   -39.2397 -12.9649 -12.2351  -6.3330  -5.3609  -4.3171  -3.5055  -3.0099
    -2.5023  -1.2243

          k = 0.1875 0.3248 0.0000 ( 11763 PWs)   bands (ev):

   -75.2280 -48.4204 -48.4181 -48.4172 -48.4162 -48.4142 -39.3784 -39.3274
   -39.2175 -13.7087 -12.8113  -5.0399  -4.7493  -4.0500  -3.7923  -2.4965
    -2.1947  -1.2583

          k = 0.1875 0.3969 0.0000 ( 11715 PWs)   bands (ev):

   -75.2260 -48.4202 -48.4179 -48.4173 -48.4159 -48.4136 -39.3722 -39.3554
   -39.2386 -13.3684 -12.5478  -5.3193  -4.6627  -4.4461  -3.9014  -2.8693
    -2.5481  -1.3160

          k = 0.1875 0.4691 0.0000 ( 11728 PWs)   bands (ev):

   -75.2244 -48.4202 -48.4178 -48.4174 -48.4154 -48.4134 -39.3760 -39.3674
   -39.2557 -13.0775 -12.3208  -5.7787  -4.9609  -4.3256  -3.8030  -3.1593
    -2.8771  -1.2766

          k = 0.1875 0.5413 0.0000 ( 11679 PWs)   bands (ev):

   -75.2235 -48.4201 -48.4177 -48.4175 -48.4148 -48.4134 -39.3867 -39.3648
   -39.2653 -12.9063 -12.1856  -6.0510  -5.1962  -4.2358  -3.6371  -3.3657
    -3.0819  -1.1899

          k = 0.2500 0.4330 0.0000 ( 11731 PWs)   bands (ev):

   -75.2244 -48.4198 -48.4180 -48.4172 -48.4159 -48.4134 -39.3678 -39.3657
   -39.2658 -13.0833 -12.3242  -5.5588  -4.8000  -4.3410  -4.0016  -3.3513
    -2.9302  -1.2697

          k = 0.2500 0.5052 0.0000 ( 11696 PWs)   bands (ev):

   -75.2233 -48.4195 -48.4180 -48.4170 -48.4155 -48.4135 -39.3689 -39.3642
   -39.2882 -12.8768 -12.1602  -5.7204  -5.0462  -4.2148  -3.9741  -3.6448
    -3.2706  -1.1169

          k = 0.2500 0.5774 0.0000 ( 11670 PWs)   bands (ev):

   -75.2229 -48.4194 -48.4181 -48.4170 -48.4152 -48.4137 -39.3685 -39.3631
   -39.2974 -12.8008 -12.0992  -5.7775  -5.1379  -4.2404  -3.8934  -3.6971
    -3.4487  -1.0302

          k = 0.3125 0.5413 0.0000 ( 11674 PWs)   bands (ev):

   -75.2227 -48.4190 -48.4183 -48.4165 -48.4157 -48.4138 -39.3625 -39.3521
   -39.3187 -12.7638 -12.0687  -5.5261  -5.1992  -4.3356  -4.0125  -3.8614
    -3.4818  -0.9426

     highest occupied level (ev):    -0.7804

!    total energy              =   -1228.37928113 Ry
     total all-electron energy =    -37944.469712 Ry
     estimated scf accuracy    <          3.2E-11 Ry

     The total energy is the sum of the following terms:
     one-electron contribution =   -2749.50504877 Ry
     hartree contribution      =    1372.31324052 Ry
     xc contribution           =     -73.23285927 Ry
     ewald contribution        =    1014.62638954 Ry
     one-center paw contrib.   =    -792.58100315 Ry

     convergence has been achieved in  32 iterations

     Writing all to output data dir ./work/WSSe.save/

     init_run     :      1.16s CPU      1.24s WALL (       1 calls)
     electrons    :     44.46s CPU     47.47s WALL (       1 calls)

     Called by init_run:
     wfcinit      :      0.48s CPU      0.51s WALL (       1 calls)
     potinit      :      0.15s CPU      0.17s WALL (       1 calls)
     hinit0       :      0.43s CPU      0.44s WALL (       1 calls)

     Called by electrons:
     c_bands      :     33.73s CPU     36.16s WALL (      33 calls)
     sum_band     :      6.47s CPU      6.98s WALL (      33 calls)
     v_of_rho     :      0.19s CPU      0.20s WALL (      33 calls)
     newd         :      2.34s CPU      2.37s WALL (      33 calls)
     PAW_pot      :      1.69s CPU      1.74s WALL (      33 calls)
     mix_rho      :      0.11s CPU      0.11s WALL (      33 calls)

     Called by c_bands:
     init_us_2    :      0.56s CPU      0.60s WALL (    2010 calls)
     init_us_2:cp :      0.56s CPU      0.60s WALL (    2010 calls)
     cegterg      :     32.10s CPU     34.49s WALL (     990 calls)

     Called by *egterg:
     cdiaghg      :      1.32s CPU      1.37s WALL (    5105 calls)
     h_psi        :     20.75s CPU     22.73s WALL (    5165 calls)
     s_psi        :      2.66s CPU      2.83s WALL (    5165 calls)
     g_psi        :      0.11s CPU      0.12s WALL (    4145 calls)

     Called by h_psi:
     h_psi:calbec :      2.66s CPU      2.99s WALL (    5165 calls)
     vloc_psi     :     15.43s CPU     16.84s WALL (    5165 calls)
     add_vuspsi   :      2.59s CPU      2.84s WALL (    5165 calls)

     General routines
     calbec       :      3.56s CPU      4.01s WALL (    6155 calls)
     fft          :      0.35s CPU      0.36s WALL (     364 calls)
     ffts         :      0.01s CPU      0.01s WALL (      33 calls)
     fftw         :     16.69s CPU     18.27s WALL (  116750 calls)

     Parallel routines

     PWSCF        :     45.92s CPU     49.08s WALL


   This run was terminated on:  11:11:42  30Jan2023            

=------------------------------------------------------------------------------=
   JOB DONE.
=------------------------------------------------------------------------------=
