
     Program PWSCF v.7.1 starts on 30Jan2023 at 11:17:24 

     This program is part of the open-source Quantum ESPRESSO suite
     for quantum simulation of materials; please cite
         "P. Giannozzi et al., J. Phys.:Condens. Matter 21 395502 (2009);
         "P. Giannozzi et al., J. Phys.:Condens. Matter 29 465901 (2017);
         "P. Giannozzi et al., J. Chem. Phys. 152 154105 (2020);
          URL http://www.quantum-espresso.org", 
     in publications or presentations arising from this work. More details at
     http://www.quantum-espresso.org/quote

     Parallel version (MPI), running on    12 processors

     MPI processes distributed on     1 nodes
     122090 MiB available memory on the printing compute node when the environment starts

     Waiting for input...
     Reading input from standard input

     Current dimensions of program PWSCF are:
     Max number of different atomic species (ntypx) = 10
     Max number of k-points (npk) =  40000
     Max angular momentum in pseudopotentials (lmaxx) =  4
     file W.pbe-spn-kjpaw_psl.1.0.0.UPF: wavefunction(s)  6S 5P 5D renormalized
     file S.pbe-n-kjpaw_psl.1.0.0.UPF: wavefunction(s)  3S 3P renormalized
     file Se.pbe-dn-kjpaw_psl.1.0.0.UPF: wavefunction(s)  4S 4P 3D renormalized
     Message from routine setup:
     using ibrav=0 with symmetry is DISCOURAGED, use correct ibrav instead

     R & G space division:  proc/nbgrp/npool/nimage =      12
     Subspace diagonalization in iterative solution of the eigenvalue problem:
     a serial algorithm will be used


     Parallelization info
     --------------------
     sticks:   dense  smooth     PW     G-vecs:    dense   smooth      PW
     Min          49      49     14                 7805     7805    1246
     Max          50      50     17                 7840     7840    1253
     Sum         595     595    187                93827    93827   14989

     Using Slab Decomposition



     bravais-lattice index     =            0
     lattice parameter (alat)  =       6.0471  a.u.
     unit-cell volume          =    1496.1227 (a.u.)^3
     number of atoms/cell      =            3
     number of atomic types    =            3
     number of electrons       =        36.00
     number of Kohn-Sham states=           18
     kinetic-energy cutoff     =      60.0000  Ry
     charge density cutoff     =     240.0000  Ry
     scf convergence threshold =      1.0E-08
     mixing beta               =       0.5000
     number of iterations used =            8  plain     mixing
     Exchange-correlation= SLA  PW   PBX  PBC
                           (   1   4   3   4   0   0   0)

     celldm(1)=   6.047124  celldm(2)=   0.000000  celldm(3)=   0.000000
     celldm(4)=   0.000000  celldm(5)=   0.000000  celldm(6)=   0.000000

     crystal axes: (cart. coord. in units of alat)
               a(1) = (   1.000000   0.000000   0.000000 )  
               a(2) = (  -0.500000   0.866025   0.000000 )  
               a(3) = (   0.000000   0.000000   7.812500 )  

     reciprocal axes: (cart. coord. in units 2 pi/alat)
               b(1) = (  1.000000  0.577350 -0.000000 )  
               b(2) = (  0.000000  1.154701  0.000000 )  
               b(3) = (  0.000000 -0.000000  0.128000 )  


     PseudoPot. # 1 for W  read from file:
     /home/mainadmin/research/danu/pseudo/W.pbe-spn-kjpaw_psl.1.0.0.UPF
     MD5 check sum: 03c3df5b60893f488392c7401945500a
     Pseudo is Projector augmented-wave + core cor, Zval = 14.0
     Generated using &quot;atomic&quot; code by A. Dal Corso  v.6.2.2
     Shape of augmentation charge: PSQ
     Using radial grid of 1273 points,  6 beta functions with: 
                l(1) =   0
                l(2) =   0
                l(3) =   1
                l(4) =   1
                l(5) =   2
                l(6) =   2
     Q(r) pseudized with 0 coefficients 


     PseudoPot. # 2 for S  read from file:
     /home/mainadmin/research/danu/pseudo/S.pbe-n-kjpaw_psl.1.0.0.UPF
     MD5 check sum: fb45dfebcf3e72a4e1bd4a866ec2e262
     Pseudo is Projector augmented-wave + core cor, Zval =  6.0
     Generated using &quot;atomic&quot; code by A. Dal Corso  v.6.3
     Shape of augmentation charge: PSQ
     Using radial grid of 1151 points,  6 beta functions with: 
                l(1) =   0
                l(2) =   0
                l(3) =   1
                l(4) =   1
                l(5) =   2
                l(6) =   2
     Q(r) pseudized with 0 coefficients 


     PseudoPot. # 3 for Se read from file:
     /home/mainadmin/research/danu/pseudo/Se.pbe-dn-kjpaw_psl.1.0.0.UPF
     MD5 check sum: ac240dd2bae32a30e0bf3a38df9c8785
     Pseudo is Projector augmented-wave + core cor, Zval = 16.0
     Generated using &quot;atomic&quot; code by A. Dal Corso  v.6.3
     Shape of augmentation charge: PSQ
     Using radial grid of 1211 points,  6 beta functions with: 
                l(1) =   0
                l(2) =   0
                l(3) =   1
                l(4) =   1
                l(5) =   2
                l(6) =   2
     Q(r) pseudized with 0 coefficients 


     atomic species   valence    mass     pseudopotential
        W             14.00   183.84000     W ( 1.00)
        S              6.00    32.06500     S ( 1.00)
        Se            16.00    78.96000     Se( 1.00)

      6 Sym. Ops. (no inversion) found



   Cartesian axes

     site n.     atom                  positions (alat units)
         1           Se  tau(   1) = (   0.5000000   0.2886751   4.5312500  )
         2           W   tau(   2) = (  -0.0000000   0.5773503   3.9062500  )
         3           S   tau(   3) = (   0.5000000   0.2886751  -4.5312500  )

     number of k points=    56
                       cart. coord. in units 2pi/alat
        k(    1) = (   0.0000000   0.0000000   0.0000000), wk =   0.0037807
        k(    2) = (   0.0000000   0.0502044   0.0000000), wk =   0.0226843
        k(    3) = (   0.0000000   0.1004087   0.0000000), wk =   0.0226843
        k(    4) = (   0.0000000   0.1506131   0.0000000), wk =   0.0226843
        k(    5) = (   0.0000000   0.2008175   0.0000000), wk =   0.0226843
        k(    6) = (   0.0000000   0.2510219   0.0000000), wk =   0.0226843
        k(    7) = (   0.0000000   0.3012262   0.0000000), wk =   0.0226843
        k(    8) = (   0.0000000   0.3514306   0.0000000), wk =   0.0226843
        k(    9) = (   0.0000000   0.4016350   0.0000000), wk =   0.0226843
        k(   10) = (   0.0000000   0.4518393   0.0000000), wk =   0.0226843
        k(   11) = (   0.0000000   0.5020437   0.0000000), wk =   0.0226843
        k(   12) = (   0.0000000   0.5522481   0.0000000), wk =   0.0226843
        k(   13) = (   0.0434783   0.0753066   0.0000000), wk =   0.0226843
        k(   14) = (   0.0434783   0.1255109   0.0000000), wk =   0.0453686
        k(   15) = (   0.0434783   0.1757153   0.0000000), wk =   0.0453686
        k(   16) = (   0.0434783   0.2259197   0.0000000), wk =   0.0453686
        k(   17) = (   0.0434783   0.2761240   0.0000000), wk =   0.0453686
        k(   18) = (   0.0434783   0.3263284   0.0000000), wk =   0.0453686
        k(   19) = (   0.0434783   0.3765328   0.0000000), wk =   0.0453686
        k(   20) = (   0.0434783   0.4267372   0.0000000), wk =   0.0453686
        k(   21) = (   0.0434783   0.4769415   0.0000000), wk =   0.0453686
        k(   22) = (   0.0434783   0.5271459   0.0000000), wk =   0.0453686
        k(   23) = (   0.0434783   0.5773503   0.0000000), wk =   0.0226843
        k(   24) = (   0.0869565   0.1506131   0.0000000), wk =   0.0226843
        k(   25) = (   0.0869565   0.2008175   0.0000000), wk =   0.0453686
        k(   26) = (   0.0869565   0.2510219   0.0000000), wk =   0.0453686
        k(   27) = (   0.0869565   0.3012262   0.0000000), wk =   0.0453686
        k(   28) = (   0.0869565   0.3514306   0.0000000), wk =   0.0453686
        k(   29) = (   0.0869565   0.4016350   0.0000000), wk =   0.0453686
        k(   30) = (   0.0869565   0.4518393   0.0000000), wk =   0.0453686
        k(   31) = (   0.0869565   0.5020437   0.0000000), wk =   0.0453686
        k(   32) = (   0.0869565   0.5522481   0.0000000), wk =   0.0453686
        k(   33) = (   0.1304348   0.2259197   0.0000000), wk =   0.0226843
        k(   34) = (   0.1304348   0.2761240   0.0000000), wk =   0.0453686
        k(   35) = (   0.1304348   0.3263284   0.0000000), wk =   0.0453686
        k(   36) = (   0.1304348   0.3765328   0.0000000), wk =   0.0453686
        k(   37) = (   0.1304348   0.4267372   0.0000000), wk =   0.0453686
        k(   38) = (   0.1304348   0.4769415   0.0000000), wk =   0.0453686
        k(   39) = (   0.1304348   0.5271459   0.0000000), wk =   0.0453686
        k(   40) = (   0.1304348   0.5773503   0.0000000), wk =   0.0226843
        k(   41) = (   0.1739130   0.3012262   0.0000000), wk =   0.0226843
        k(   42) = (   0.1739130   0.3514306   0.0000000), wk =   0.0453686
        k(   43) = (   0.1739130   0.4016350   0.0000000), wk =   0.0453686
        k(   44) = (   0.1739130   0.4518393   0.0000000), wk =   0.0453686
        k(   45) = (   0.1739130   0.5020437   0.0000000), wk =   0.0453686
        k(   46) = (   0.1739130   0.5522481   0.0000000), wk =   0.0453686
        k(   47) = (   0.2173913   0.3765328   0.0000000), wk =   0.0226843
        k(   48) = (   0.2173913   0.4267372   0.0000000), wk =   0.0453686
        k(   49) = (   0.2173913   0.4769415   0.0000000), wk =   0.0453686
        k(   50) = (   0.2173913   0.5271459   0.0000000), wk =   0.0453686
        k(   51) = (   0.2173913   0.5773503   0.0000000), wk =   0.0226843
        k(   52) = (   0.2608696   0.4518393   0.0000000), wk =   0.0226843
        k(   53) = (   0.2608696   0.5020437   0.0000000), wk =   0.0453686
        k(   54) = (   0.2608696   0.5522481   0.0000000), wk =   0.0453686
        k(   55) = (   0.3043478   0.5271459   0.0000000), wk =   0.0226843
        k(   56) = (   0.3043478   0.5773503   0.0000000), wk =   0.0226843

     Dense  grid:    93827 G-vectors     FFT dimensions: (  30,  30, 240)

     Estimated max dynamical RAM per process >      47.15 MB

     Estimated total dynamical RAM >     565.77 MB

     Check: negative core charge=   -0.000001

     Initial potential from superposition of free atoms

     starting charge      35.9993, renormalised to      36.0000

     negative rho (up, down):  5.774E-04 0.000E+00
     Starting wfcs are   26 randomized atomic wfcs
     Checking if some PAW data can be deallocated... 

     total cpu time spent up to now is        2.0 secs

     Self-consistent Calculation

     iteration #  1     ecut=    60.00 Ry     beta= 0.50
     Davidson diagonalization with overlap
     ethr =  1.00E-02,  avg # of iterations =  2.0

     Threshold (ethr) on eigenvalues was too large:
     Diagonalizing with lowered threshold

     Davidson diagonalization with overlap
     ethr =  4.62E-04,  avg # of iterations =  2.1

     negative rho (up, down):  1.101E-03 0.000E+00

     total cpu time spent up to now is        6.1 secs

     total energy              =   -1228.30569182 Ry
     estimated scf accuracy    <       0.16888943 Ry

     iteration #  2     ecut=    60.00 Ry     beta= 0.50
     Davidson diagonalization with overlap
     ethr =  4.69E-04,  avg # of iterations =  8.4

     negative rho (up, down):  1.382E-03 0.000E+00

     total cpu time spent up to now is        9.3 secs

     total energy              =   -1228.07255428 Ry
     estimated scf accuracy    <       4.18223508 Ry

     iteration #  3     ecut=    60.00 Ry     beta= 0.50
     Davidson diagonalization with overlap
     ethr =  4.69E-04,  avg # of iterations =  7.7

     negative rho (up, down):  4.174E-03 0.000E+00

     total cpu time spent up to now is       12.6 secs

     total energy              =   -1228.37200576 Ry
     estimated scf accuracy    <       0.05099589 Ry

     iteration #  4     ecut=    60.00 Ry     beta= 0.50
     Davidson diagonalization with overlap
     ethr =  1.42E-04,  avg # of iterations =  4.6

     negative rho (up, down):  7.715E-03 0.000E+00

     total cpu time spent up to now is       15.1 secs

     total energy              =   -1228.37528485 Ry
     estimated scf accuracy    <       0.09877347 Ry

     iteration #  5     ecut=    60.00 Ry     beta= 0.50
     Davidson diagonalization with overlap
     ethr =  1.42E-04,  avg # of iterations =  3.6

     negative rho (up, down):  1.526E-02 0.000E+00

     total cpu time spent up to now is       17.4 secs

     total energy              =   -1228.38542119 Ry
     estimated scf accuracy    <       0.01740359 Ry

     iteration #  6     ecut=    60.00 Ry     beta= 0.50
     Davidson diagonalization with overlap
     ethr =  4.83E-05,  avg # of iterations =  3.6

     negative rho (up, down):  3.621E-03 0.000E+00

     total cpu time spent up to now is       19.7 secs

     total energy              =   -1228.36960477 Ry
     estimated scf accuracy    <       0.01734584 Ry

     iteration #  7     ecut=    60.00 Ry     beta= 0.50
     Davidson diagonalization with overlap
     ethr =  4.82E-05,  avg # of iterations =  5.1

     negative rho (up, down):  7.071E-03 0.000E+00

     total cpu time spent up to now is       22.4 secs

     total energy              =   -1228.38089526 Ry
     estimated scf accuracy    <       0.03395412 Ry

     iteration #  8     ecut=    60.00 Ry     beta= 0.50
     Davidson diagonalization with overlap
     ethr =  4.82E-05,  avg # of iterations =  2.0

     negative rho (up, down):  1.916E-03 0.000E+00

     total cpu time spent up to now is       24.5 secs

     total energy              =   -1228.37733262 Ry
     estimated scf accuracy    <       0.02175344 Ry

     iteration #  9     ecut=    60.00 Ry     beta= 0.50
     Davidson diagonalization with overlap
     ethr =  4.82E-05,  avg # of iterations =  2.1

     negative rho (up, down):  8.387E-04 0.000E+00

     total cpu time spent up to now is       26.7 secs

     total energy              =   -1228.37782996 Ry
     estimated scf accuracy    <       0.00924088 Ry

     iteration # 10     ecut=    60.00 Ry     beta= 0.50
     Davidson diagonalization with overlap
     ethr =  2.57E-05,  avg # of iterations =  4.0

     negative rho (up, down):  7.823E-04 0.000E+00

     total cpu time spent up to now is       29.1 secs

     total energy              =   -1228.37918540 Ry
     estimated scf accuracy    <       0.00072983 Ry

     iteration # 11     ecut=    60.00 Ry     beta= 0.50
     Davidson diagonalization with overlap
     ethr =  2.03E-06,  avg # of iterations =  4.7

     negative rho (up, down):  7.641E-04 0.000E+00

     total cpu time spent up to now is       31.6 secs

     total energy              =   -1228.37911589 Ry
     estimated scf accuracy    <       0.00091110 Ry

     iteration # 12     ecut=    60.00 Ry     beta= 0.50
     Davidson diagonalization with overlap
     ethr =  2.03E-06,  avg # of iterations =  4.1

     negative rho (up, down):  7.475E-04 0.000E+00

     total cpu time spent up to now is       34.0 secs

     total energy              =   -1228.37927017 Ry
     estimated scf accuracy    <       0.00017956 Ry

     iteration # 13     ecut=    60.00 Ry     beta= 0.50
     Davidson diagonalization with overlap
     ethr =  4.99E-07,  avg # of iterations =  2.6

     negative rho (up, down):  7.425E-04 0.000E+00

     total cpu time spent up to now is       36.0 secs

     total energy              =   -1228.37926063 Ry
     estimated scf accuracy    <       0.00006273 Ry

     iteration # 14     ecut=    60.00 Ry     beta= 0.50
     Davidson diagonalization with overlap
     ethr =  1.74E-07,  avg # of iterations =  5.0

     negative rho (up, down):  7.450E-04 0.000E+00

     total cpu time spent up to now is       38.6 secs

     total energy              =   -1228.37928117 Ry
     estimated scf accuracy    <       0.00007116 Ry

     iteration # 15     ecut=    60.00 Ry     beta= 0.50
     Davidson diagonalization with overlap
     ethr =  1.74E-07,  avg # of iterations =  1.1

     negative rho (up, down):  7.450E-04 0.000E+00

     total cpu time spent up to now is       40.4 secs

     total energy              =   -1228.37927978 Ry
     estimated scf accuracy    <       0.00004725 Ry

     iteration # 16     ecut=    60.00 Ry     beta= 0.50
     Davidson diagonalization with overlap
     ethr =  1.31E-07,  avg # of iterations =  1.0

     negative rho (up, down):  7.450E-04 0.000E+00

     total cpu time spent up to now is       42.3 secs

     total energy              =   -1228.37927766 Ry
     estimated scf accuracy    <       0.00003442 Ry

     iteration # 17     ecut=    60.00 Ry     beta= 0.50
     Davidson diagonalization with overlap
     ethr =  9.56E-08,  avg # of iterations =  2.8

     negative rho (up, down):  7.451E-04 0.000E+00

     total cpu time spent up to now is       44.2 secs

     total energy              =   -1228.37927719 Ry
     estimated scf accuracy    <       0.00001137 Ry

     iteration # 18     ecut=    60.00 Ry     beta= 0.50
     Davidson diagonalization with overlap
     ethr =  3.16E-08,  avg # of iterations =  5.0

     negative rho (up, down):  7.447E-04 0.000E+00

     total cpu time spent up to now is       46.8 secs

     total energy              =   -1228.37928005 Ry
     estimated scf accuracy    <       0.00000220 Ry

     iteration # 19     ecut=    60.00 Ry     beta= 0.50
     Davidson diagonalization with overlap
     ethr =  6.11E-09,  avg # of iterations =  3.7

     negative rho (up, down):  7.453E-04 0.000E+00

     total cpu time spent up to now is       49.0 secs

     total energy              =   -1228.37928002 Ry
     estimated scf accuracy    <       0.00000461 Ry

     iteration # 20     ecut=    60.00 Ry     beta= 0.50
     Davidson diagonalization with overlap
     ethr =  6.11E-09,  avg # of iterations =  1.0

     negative rho (up, down):  7.447E-04 0.000E+00

     total cpu time spent up to now is       50.8 secs

     total energy              =   -1228.37928000 Ry
     estimated scf accuracy    <       0.00000405 Ry

     iteration # 21     ecut=    60.00 Ry     beta= 0.50
     Davidson diagonalization with overlap
     ethr =  6.11E-09,  avg # of iterations =  1.0

     negative rho (up, down):  7.448E-04 0.000E+00

     total cpu time spent up to now is       52.6 secs

     total energy              =   -1228.37927996 Ry
     estimated scf accuracy    <       0.00000385 Ry

     iteration # 22     ecut=    60.00 Ry     beta= 0.50
     Davidson diagonalization with overlap
     ethr =  6.11E-09,  avg # of iterations =  1.0

     negative rho (up, down):  7.437E-04 0.000E+00

     total cpu time spent up to now is       54.6 secs

     total energy              =   -1228.37927964 Ry
     estimated scf accuracy    <       0.00000361 Ry

     iteration # 23     ecut=    60.00 Ry     beta= 0.50
     Davidson diagonalization with overlap
     ethr =  6.11E-09,  avg # of iterations =  2.3

     negative rho (up, down):  7.435E-04 0.000E+00

     total cpu time spent up to now is       56.6 secs

     total energy              =   -1228.37927959 Ry
     estimated scf accuracy    <       0.00000157 Ry

     iteration # 24     ecut=    60.00 Ry     beta= 0.50
     Davidson diagonalization with overlap
     ethr =  4.37E-09,  avg # of iterations =  3.1

     negative rho (up, down):  7.427E-04 0.000E+00

     total cpu time spent up to now is       58.7 secs

     total energy              =   -1228.37927974 Ry
     estimated scf accuracy    <       0.00000044 Ry

     iteration # 25     ecut=    60.00 Ry     beta= 0.50
     Davidson diagonalization with overlap
     ethr =  1.21E-09,  avg # of iterations =  2.0

     negative rho (up, down):  7.441E-04 0.000E+00

     total cpu time spent up to now is       60.8 secs

     total energy              =   -1228.37927970 Ry
     estimated scf accuracy    <       0.00000058 Ry

     iteration # 26     ecut=    60.00 Ry     beta= 0.50
     Davidson diagonalization with overlap
     ethr =  1.21E-09,  avg # of iterations =  1.7

     negative rho (up, down):  7.454E-04 0.000E+00

     total cpu time spent up to now is       62.7 secs

     total energy              =   -1228.37927965 Ry
     estimated scf accuracy    <       0.00000050 Ry

     iteration # 27     ecut=    60.00 Ry     beta= 0.50
     Davidson diagonalization with overlap
     ethr =  1.21E-09,  avg # of iterations =  2.6

     negative rho (up, down):  7.437E-04 0.000E+00

     total cpu time spent up to now is       64.8 secs

     total energy              =   -1228.37927968 Ry
     estimated scf accuracy    <       0.00000012 Ry

     iteration # 28     ecut=    60.00 Ry     beta= 0.50
     Davidson diagonalization with overlap
     ethr =  3.36E-10,  avg # of iterations =  4.1

     negative rho (up, down):  7.455E-04 0.000E+00

     total cpu time spent up to now is       67.2 secs

     total energy              =   -1228.37927966 Ry
     estimated scf accuracy    <       0.00000013 Ry

     iteration # 29     ecut=    60.00 Ry     beta= 0.50
     Davidson diagonalization with overlap
     ethr =  3.36E-10,  avg # of iterations =  5.9

     negative rho (up, down):  7.461E-04 0.000E+00

     total cpu time spent up to now is       70.0 secs

     total energy              =   -1228.37927969 Ry
     estimated scf accuracy    <       0.00000046 Ry

     iteration # 30     ecut=    60.00 Ry     beta= 0.50
     Davidson diagonalization with overlap
     ethr =  3.36E-10,  avg # of iterations =  2.3

     negative rho (up, down):  7.466E-04 0.000E+00

     total cpu time spent up to now is       72.1 secs

     total energy              =   -1228.37927965 Ry
     estimated scf accuracy    <       0.00000021 Ry

     iteration # 31     ecut=    60.00 Ry     beta= 0.50
     Davidson diagonalization with overlap
     ethr =  3.36E-10,  avg # of iterations =  4.8

     negative rho (up, down):  7.467E-04 0.000E+00

     total cpu time spent up to now is       74.6 secs

     total energy              =   -1228.37927969 Ry
     estimated scf accuracy    <       0.00000002 Ry

     iteration # 32     ecut=    60.00 Ry     beta= 0.50
     Davidson diagonalization with overlap
     ethr =  5.26E-11,  avg # of iterations =  2.0

     negative rho (up, down):  7.467E-04 0.000E+00

     total cpu time spent up to now is       76.6 secs

     total energy              =   -1228.37927968 Ry
     estimated scf accuracy    <       0.00000002 Ry

     iteration # 33     ecut=    60.00 Ry     beta= 0.50
     Davidson diagonalization with overlap
     ethr =  5.01E-11,  avg # of iterations =  3.2

     negative rho (up, down):  7.469E-04 0.000E+00

     total cpu time spent up to now is       78.7 secs

     End of self-consistent calculation

          k = 0.0000 0.0000 0.0000 ( 11811 PWs)   bands (ev):

   -75.2382 -48.4208 -48.4208 -48.4174 -48.4159 -48.4159 -39.4089 -39.1504
   -39.1504 -14.9932 -13.8032  -6.8568  -3.7196  -2.1970  -1.8502  -1.8502
    -0.7804  -0.7804

          k = 0.0000 0.0502 0.0000 ( 11811 PWs)   bands (ev):

   -75.2380 -48.4208 -48.4207 -48.4173 -48.4160 -48.4160 -39.4081 -39.1554
   -39.1516 -14.9662 -13.7823  -6.8143  -3.7257  -2.1798  -1.9359  -1.8194
    -0.8488  -0.8303

          k = 0.0000 0.1004 0.0000 ( 11797 PWs)   bands (ev):

   -75.2372 -48.4208 -48.4204 -48.4171 -48.4161 -48.4160 -39.4059 -39.1701
   -39.1551 -14.8858 -13.7201  -6.6889  -3.7449  -2.1878  -2.1264  -1.7298
    -1.0609  -0.9679

          k = 0.0000 0.1506 0.0000 ( 11805 PWs)   bands (ev):

   -75.2361 -48.4209 -48.4199 -48.4169 -48.4162 -48.4160 -39.4023 -39.1932
   -39.1607 -14.7547 -13.6188  -6.4874  -3.7803  -2.5625  -2.0663  -1.5905
    -1.4191  -1.1656

          k = 0.0000 0.2008 0.0000 ( 11797 PWs)   bands (ev):

   -75.2345 -48.4210 -48.4193 -48.4166 -48.4163 -48.4159 -39.3978 -39.2231
   -39.1680 -14.5770 -13.4815  -6.2229  -3.8408  -3.0359  -2.0276  -1.8778
    -1.4230  -1.3896

          k = 0.0000 0.2510 0.0000 ( 11781 PWs)   bands (ev):

   -75.2328 -48.4210 -48.4187 -48.4168 -48.4159 -48.4159 -39.3925 -39.2573
   -39.1763 -14.3593 -13.3136  -5.9174  -3.9569  -3.5540  -2.4104  -2.0042
    -1.6309  -1.2384

          k = 0.0000 0.3012 0.0000 ( 11769 PWs)   bands (ev):

   -75.2309 -48.4212 -48.4181 -48.4171 -48.4157 -48.4153 -39.3868 -39.2934
   -39.1851 -14.1110 -13.1225  -5.6110  -4.2667  -3.9659  -2.8612  -2.0704
    -1.8560  -1.0858

          k = 0.0000 0.3514 0.0000 ( 11767 PWs)   bands (ev):

   -75.2291 -48.4214 -48.4177 -48.4174 -48.4154 -48.4148 -39.3813 -39.3286
   -39.1938 -13.8454 -12.9186  -5.4075  -4.7254  -4.2477  -3.1762  -2.1521
    -2.0583  -0.9863

          k = 0.0000 0.4016 0.0000 ( 11761 PWs)   bands (ev):

   -75.2274 -48.4215 -48.4176 -48.4174 -48.4150 -48.4143 -39.3764 -39.3603
   -39.2016 -13.5810 -12.7157  -5.5912  -4.9410  -4.4781  -3.3497  -2.2288
    -2.1854  -0.9436

          k = 0.0000 0.4518 0.0000 ( 11763 PWs)   bands (ev):

   -75.2260 -48.4217 -48.4178 -48.4173 -48.4145 -48.4138 -39.3864 -39.3721
   -39.2080 -13.3420 -12.5321  -5.9978  -5.1324  -4.5048  -3.4377  -2.3614
    -2.1418  -0.9394

          k = 0.0000 0.5020 0.0000 ( 11723 PWs)   bands (ev):

   -75.2250 -48.4217 -48.4180 -48.4173 -48.4141 -48.4134 -39.4048 -39.3692
   -39.2126 -13.1577 -12.3895  -6.3342  -5.3494  -4.4592  -3.4816  -2.4519
    -2.0508  -0.9507

          k = 0.0000 0.5522 0.0000 ( 11698 PWs)   bands (ev):

   -75.2245 -48.4217 -48.4181 -48.4173 -48.4139 -48.4132 -39.4143 -39.3677
   -39.2150 -13.0564 -12.3106  -6.5191  -5.4761  -4.4344  -3.5001  -2.4977
    -1.9788  -0.9604

          k = 0.0435 0.0753 0.0000 ( 11795 PWs)   bands (ev):

   -75.2375 -48.4208 -48.4205 -48.4172 -48.4160 -48.4160 -39.4066 -39.1652
   -39.1540 -14.9125 -13.7407  -6.7303  -3.7382  -2.1506  -2.0977  -1.7600
    -0.9954  -0.9178

          k = 0.0435 0.1255 0.0000 ( 11791 PWs)   bands (ev):

   -75.2365 -48.4208 -48.4201 -48.4170 -48.4162 -48.4160 -39.4037 -39.1839
   -39.1588 -14.8067 -13.6590  -6.5666  -3.7646  -2.4129  -2.0882  -1.6486
    -1.2915  -1.0757

          k = 0.0435 0.1757 0.0000 ( 11804 PWs)   bands (ev):

   -75.2352 -48.4209 -48.4196 -48.4167 -48.4164 -48.4160 -39.3997 -39.2101
   -39.1655 -14.6522 -13.5396  -6.3327  -3.8092  -2.8340  -2.0314  -1.7140
    -1.4991  -1.2828

          k = 0.0435 0.2259 0.0000 ( 11799 PWs)   bands (ev):

   -75.2335 -48.4210 -48.4190 -48.4167 -48.4162 -48.4159 -39.3947 -39.2418
   -39.1737 -14.4544 -13.3869  -6.0450  -3.8863  -3.3282  -2.2244  -1.9950
    -1.5152  -1.3314

          k = 0.0435 0.2761 0.0000 ( 11786 PWs)   bands (ev):

   -75.2317 -48.4211 -48.4184 -48.4170 -48.4159 -48.4155 -39.3893 -39.2766
   -39.1826 -14.2210 -13.2071  -5.7321  -4.0686  -3.8087  -2.7095  -2.0426
    -1.7489  -1.1749

          k = 0.0435 0.3263 0.0000 ( 11771 PWs)   bands (ev):

   -75.2298 -48.4212 -48.4179 -48.4172 -48.4157 -48.4149 -39.3837 -39.3118
   -39.1917 -13.9634 -13.0089  -5.4534  -4.5071  -4.1065  -3.0933  -2.1361
    -1.9686  -1.0602

          k = 0.0435 0.3765 0.0000 ( 11752 PWs)   bands (ev):

   -75.2281 -48.4213 -48.4176 -48.4175 -48.4153 -48.4144 -39.3785 -39.3449
   -39.2003 -13.6971 -12.8045  -5.4121  -4.8612  -4.3759  -3.3190  -2.2254
    -2.1509  -1.0064

          k = 0.0435 0.4267 0.0000 ( 11748 PWs)   bands (ev):

   -75.2266 -48.4215 -48.4177 -48.4174 -48.4148 -48.4139 -39.3748 -39.3726
   -39.2078 -13.4435 -12.6098  -5.7725  -5.0034  -4.5070  -3.4273  -2.3493
    -2.1966  -1.0005

          k = 0.0435 0.4769 0.0000 ( 11724 PWs)   bands (ev):

   -75.2254 -48.4216 -48.4179 -48.4173 -48.4144 -48.4135 -39.3955 -39.3703
   -39.2135 -13.2295 -12.4448  -6.1585  -5.2305  -4.4682  -3.4761  -2.4701
    -2.1362  -1.0151

          k = 0.0435 0.5271 0.0000 ( 11693 PWs)   bands (ev):

   -75.2247 -48.4216 -48.4180 -48.4173 -48.4140 -48.4133 -39.4093 -39.3681
   -39.2172 -13.0846 -12.3322  -6.4232  -5.4106  -4.4283  -3.4963  -2.5476
    -2.0552  -1.0295

          k = 0.0435 0.5774 0.0000 ( 11692 PWs)   bands (ev):

   -75.2244 -48.4216 -48.4180 -48.4173 -48.4139 -48.4132 -39.4140 -39.3673
   -39.2184 -13.0332 -12.2919  -6.5170  -5.4758  -4.4158  -3.5016  -2.5742
    -2.0191  -1.0347

          k = 0.0870 0.1506 0.0000 ( 11815 PWs)   bands (ev):

   -75.2354 -48.4209 -48.4198 -48.4167 -48.4164 -48.4159 -39.4003 -39.2053
   -39.1650 -14.6776 -13.5592  -6.3697  -3.7977  -2.7604  -2.0356  -1.6677
    -1.5326  -1.2315

          k = 0.0870 0.2008 0.0000 ( 11797 PWs)   bands (ev):

   -75.2339 -48.4209 -48.4193 -48.4166 -48.4164 -48.4158 -39.3959 -39.2328
   -39.1732 -14.5027 -13.4241  -6.1099  -3.8484  -3.1956  -2.1435  -1.9983
    -1.4311  -1.4004

          k = 0.0870 0.2510 0.0000 ( 11782 PWs)   bands (ev):

   -75.2322 -48.4209 -48.4187 -48.4168 -48.4162 -48.4155 -39.3908 -39.2642
   -39.1828 -14.2888 -13.2591  -5.8071  -3.9447  -3.6704  -2.6418  -2.0327
    -1.6559  -1.2698

          k = 0.0870 0.3012 0.0000 ( 11774 PWs)   bands (ev):

   -75.2304 -48.4210 -48.4182 -48.4171 -48.4160 -48.4150 -39.3854 -39.2973
   -39.1929 -14.0451 -13.0714  -5.4984  -4.2836  -3.9846  -3.0838  -2.1383
    -1.8877  -1.1649

          k = 0.0870 0.3514 0.0000 ( 11781 PWs)   bands (ev):

   -75.2286 -48.4211 -48.4178 -48.4173 -48.4158 -48.4145 -39.3801 -39.3296
   -39.2028 -13.7849 -12.8713  -5.2894  -4.7298  -4.2286  -3.3672  -2.2714
    -2.1045  -1.1192

          k = 0.0870 0.4016 0.0000 ( 11761 PWs)   bands (ev):

   -75.2270 -48.4212 -48.4176 -48.4175 -48.4153 -48.4140 -39.3753 -39.3587
   -39.2118 -13.5266 -12.6726  -5.5062  -4.8758  -4.4613  -3.4859  -2.4036
    -2.2584  -1.1276

          k = 0.0870 0.4518 0.0000 ( 11737 PWs)   bands (ev):

   -75.2257 -48.4213 -48.4178 -48.4174 -48.4148 -48.4136 -39.3827 -39.3712
   -39.2192 -13.2938 -12.4932  -5.9129  -5.0625  -4.4648  -3.5178  -2.5554
    -2.2893  -1.1520

          k = 0.0870 0.5020 0.0000 ( 11700 PWs)   bands (ev):

   -75.2248 -48.4213 -48.4179 -48.4174 -48.4144 -48.4134 -39.3996 -39.3684
   -39.2244 -13.1148 -12.3543  -6.2389  -5.2834  -4.4044  -3.5140  -2.6853
    -2.2503  -1.1657

          k = 0.0870 0.5522 0.0000 ( 11682 PWs)   bands (ev):

   -75.2243 -48.4213 -48.4179 -48.4174 -48.4141 -48.4133 -39.4083 -39.3670
   -39.2272 -13.0166 -12.2775  -6.4169  -5.4102  -4.3751  -3.5030  -2.7594
    -2.2113  -1.1667

          k = 0.1304 0.2259 0.0000 ( 11781 PWs)   bands (ev):

   -75.2324 -48.4208 -48.4189 -48.4168 -48.4163 -48.4154 -39.3913 -39.2596
   -39.1833 -14.3116 -13.2766  -5.8325  -3.9025  -3.6141  -2.6260  -2.0305
    -1.6172  -1.3099

          k = 0.1304 0.2761 0.0000 ( 11779 PWs)   bands (ev):

   -75.2307 -48.4207 -48.4185 -48.4170 -48.4162 -48.4150 -39.3863 -39.2886
   -39.1947 -14.0868 -13.1032  -5.5236  -4.1278  -3.9199  -3.1093  -2.1454
    -1.8345  -1.2337

          k = 0.1304 0.3263 0.0000 ( 11774 PWs)   bands (ev):

   -75.2290 -48.4207 -48.4181 -48.4172 -48.4161 -48.4145 -39.3811 -39.3177
   -39.2066 -13.8396 -12.9127  -5.2337  -4.5802  -4.0741  -3.4831  -2.3202
    -2.0655  -1.2050

          k = 0.1304 0.3765 0.0000 ( 11756 PWs)   bands (ev):

   -75.2274 -48.4208 -48.4178 -48.4174 -48.4158 -48.4140 -39.3763 -39.3450
   -39.2179 -13.5852 -12.7167  -5.2354  -4.8068  -4.3421  -3.6349  -2.5014
    -2.2865  -1.2295

          k = 0.1304 0.4267 0.0000 ( 11730 PWs)   bands (ev):

   -75.2260 -48.4208 -48.4177 -48.4175 -48.4154 -48.4136 -39.3723 -39.3683
   -39.2278 -13.3445 -12.5308  -5.6272  -4.8641  -4.4634  -3.6465  -2.6693
    -2.4552  -1.2600

          k = 0.1304 0.4769 0.0000 ( 11701 PWs)   bands (ev):

   -75.2249 -48.4208 -48.4177 -48.4175 -48.4149 -48.4134 -39.3867 -39.3687
   -39.2354 -13.1426 -12.3741  -5.9875  -5.1050  -4.3802  -3.6029  -2.8392
    -2.5331  -1.2617

          k = 0.1304 0.5271 0.0000 ( 11692 PWs)   bands (ev):

   -75.2242 -48.4208 -48.4178 -48.4175 -48.4145 -48.4133 -39.3981 -39.3667
   -39.2402 -13.0067 -12.2677  -6.2296  -5.2859  -4.3246  -3.5408  -2.9847
    -2.5512  -1.2399

          k = 0.1304 0.5774 0.0000 ( 11682 PWs)   bands (ev):

   -75.2239 -48.4208 -48.4178 -48.4175 -48.4143 -48.4133 -39.4019 -39.3659
   -39.2419 -12.9585 -12.2298  -6.3149  -5.3501  -4.3087  -3.5070  -3.0476
    -2.5525  -1.2264

          k = 0.1739 0.3012 0.0000 ( 11749 PWs)   bands (ev):

   -75.2291 -48.4205 -48.4183 -48.4171 -48.4162 -48.4144 -39.3815 -39.3131
   -39.2084 -13.8581 -12.9267  -5.2190  -4.5121  -3.9891  -3.5632  -2.3432
    -2.0488  -1.2335

          k = 0.1739 0.3514 0.0000 ( 11749 PWs)   bands (ev):

   -75.2275 -48.4204 -48.4180 -48.4172 -48.4161 -48.4140 -39.3768 -39.3364
   -39.2226 -13.6156 -12.7394  -5.0186  -4.8275  -4.1670  -3.8322  -2.5848
    -2.2861  -1.2739

          k = 0.1739 0.4016 0.0000 ( 11726 PWs)   bands (ev):

   -75.2261 -48.4204 -48.4179 -48.4174 -48.4158 -48.4136 -39.3725 -39.3569
   -39.2360 -13.3768 -12.5546  -5.3596  -4.6938  -4.4519  -3.8442  -2.8175
    -2.5263  -1.3090

          k = 0.1739 0.4518 0.0000 ( 11724 PWs)   bands (ev):

   -75.2249 -48.4203 -48.4178 -48.4175 -48.4154 -48.4134 -39.3736 -39.3688
   -39.2473 -13.1639 -12.3890  -5.7125  -4.8978  -4.3808  -3.7833  -3.0103
    -2.7430  -1.2985

          k = 0.1739 0.5020 0.0000 ( 11695 PWs)   bands (ev):

   -75.2241 -48.4203 -48.4177 -48.4175 -48.4150 -48.4134 -39.3851 -39.3664
   -39.2554 -13.0018 -12.2618  -5.9820  -5.1208  -4.2857  -3.6845  -3.1730
    -2.8990  -1.2490

          k = 0.1739 0.5522 0.0000 ( 11678 PWs)   bands (ev):

   -75.2237 -48.4203 -48.4177 -48.4176 -48.4147 -48.4134 -39.3910 -39.3651
   -39.2597 -12.9136 -12.1920  -6.1285  -5.2412  -4.2480  -3.5713  -3.3174
    -2.9705  -1.2036

          k = 0.2174 0.3765 0.0000 ( 11727 PWs)   bands (ev):

   -75.2262 -48.4202 -48.4180 -48.4173 -48.4160 -48.4136 -39.3727 -39.3522
   -39.2396 -13.3880 -12.5628  -5.2337  -4.6552  -4.3975  -3.9719  -2.8899
    -2.5370  -1.3200

          k = 0.2174 0.4267 0.0000 ( 11721 PWs)   bands (ev):

   -75.2250 -48.4200 -48.4179 -48.4173 -48.4158 -48.4134 -39.3692 -39.3643
   -39.2557 -13.1755 -12.3969  -5.5058  -4.7228  -4.4131  -3.9624  -3.1749
    -2.7955  -1.3041

          k = 0.2174 0.4769 0.0000 ( 11707 PWs)   bands (ev):

   -75.2241 -48.4199 -48.4179 -48.4173 -48.4155 -48.4134 -39.3730 -39.3662
   -39.2691 -13.0000 -12.2588  -5.7350  -4.9614  -4.2760  -3.8975  -3.3864
    -3.0398  -1.2314

          k = 0.2174 0.5271 0.0000 ( 11689 PWs)   bands (ev):

   -75.2235 -48.4198 -48.4179 -48.4173 -48.4151 -48.4135 -39.3777 -39.3645
   -39.2780 -12.8833 -12.1662  -5.8900  -5.1162  -4.2191  -3.7989  -3.5021
    -3.2438  -1.1474

          k = 0.2174 0.5774 0.0000 ( 11678 PWs)   bands (ev):

   -75.2233 -48.4198 -48.4179 -48.4173 -48.4150 -48.4136 -39.3793 -39.3639
   -39.2812 -12.8423 -12.1334  -5.9451  -5.1695  -4.2092  -3.7350  -3.5375
    -3.3397  -1.1104

          k = 0.2609 0.4518 0.0000 ( 11719 PWs)   bands (ev):

   -75.2240 -48.4197 -48.4180 -48.4171 -48.4158 -48.4134 -39.3678 -39.3659
   -39.2750 -12.9996 -12.2580  -5.6175  -4.8937  -4.2718  -4.0146  -3.4921
    -3.0578  -1.2205

          k = 0.2609 0.5020 0.0000 ( 11706 PWs)   bands (ev):

   -75.2234 -48.4194 -48.4181 -48.4170 -48.4156 -48.4136 -39.3670 -39.3641
   -39.2914 -12.8682 -12.1532  -5.6861  -5.0443  -4.2094  -4.0141  -3.6815
    -3.2862  -1.1025

          k = 0.2609 0.5522 0.0000 ( 11689 PWs)   bands (ev):

   -75.2230 -48.4193 -48.4181 -48.4169 -48.4154 -48.4137 -39.3651 -39.3632
   -39.3015 -12.7976 -12.0965  -5.7165  -5.1292  -4.2546  -3.9423  -3.7445
    -3.4409  -1.0164

          k = 0.3043 0.5271 0.0000 ( 11672 PWs)   bands (ev):

   -75.2229 -48.4191 -48.4183 -48.4166 -48.4157 -48.4137 -39.3629 -39.3567
   -39.3120 -12.7825 -12.0839  -5.5780  -5.1527  -4.2926  -4.0307  -3.8256
    -3.4480  -0.9761

          k = 0.3043 0.5774 0.0000 ( 11688 PWs)   bands (ev):

   -75.2228 -48.4189 -48.4184 -48.4164 -48.4158 -48.4138 -39.3625 -39.3489
   -39.3234 -12.7527 -12.0597  -5.4929  -5.2344  -4.3632  -3.9859  -3.8889
    -3.5028  -0.9227

     highest occupied level (ev):    -0.7804

!    total energy              =   -1228.37927968 Ry
     total all-electron energy =    -37944.469710 Ry
     estimated scf accuracy    <          1.7E-09 Ry

     The total energy is the sum of the following terms:
     one-electron contribution =   -2749.50541418 Ry
     hartree contribution      =    1372.31362910 Ry
     xc contribution           =     -73.23287657 Ry
     ewald contribution        =    1014.62638954 Ry
     one-center paw contrib.   =    -792.58100758 Ry

     convergence has been achieved in  33 iterations

     Writing all to output data dir ./work/WSSe.save/

     init_run     :      1.58s CPU      1.71s WALL (       1 calls)
     electrons    :     71.63s CPU     76.76s WALL (       1 calls)

     Called by init_run:
     wfcinit      :      0.88s CPU      0.98s WALL (       1 calls)
     potinit      :      0.16s CPU      0.17s WALL (       1 calls)
     hinit0       :      0.43s CPU      0.44s WALL (       1 calls)

     Called by electrons:
     c_bands      :     56.94s CPU     61.13s WALL (      34 calls)
     sum_band     :     10.30s CPU     11.14s WALL (      34 calls)
     v_of_rho     :      0.19s CPU      0.21s WALL (      34 calls)
     newd         :      2.42s CPU      2.44s WALL (      34 calls)
     PAW_pot      :      1.74s CPU      1.81s WALL (      34 calls)
     mix_rho      :      0.12s CPU      0.12s WALL (      34 calls)

     Called by c_bands:
     init_us_2    :      1.05s CPU      1.12s WALL (    3864 calls)
     init_us_2:cp :      1.05s CPU      1.12s WALL (    3864 calls)
     cegterg      :     53.93s CPU     58.03s WALL (    1904 calls)

     Called by *egterg:
     cdiaghg      :      2.02s CPU      2.10s WALL (    8111 calls)
     h_psi        :     35.35s CPU     38.98s WALL (    8223 calls)
     s_psi        :      4.60s CPU      4.84s WALL (    8223 calls)
     g_psi        :      0.18s CPU      0.18s WALL (    6263 calls)

     Called by h_psi:
     h_psi:calbec :      4.71s CPU      5.27s WALL (    8223 calls)
     vloc_psi     :     26.08s CPU     28.79s WALL (    8223 calls)
     add_vuspsi   :      4.46s CPU      4.82s WALL (    8223 calls)

     General routines
     calbec       :      6.51s CPU      7.29s WALL (   10127 calls)
     fft          :      0.36s CPU      0.37s WALL (     375 calls)
     ffts         :      0.01s CPU      0.01s WALL (      34 calls)
     fftw         :     28.83s CPU     31.82s WALL (  206276 calls)

     Parallel routines

     PWSCF        :   1m13.59s CPU   1m18.93s WALL


   This run was terminated on:  11:18:43  30Jan2023            

=------------------------------------------------------------------------------=
   JOB DONE.
=------------------------------------------------------------------------------=
