
     Program PWSCF v.7.1 starts on 30Jan2023 at 11: 7:11 

     This program is part of the open-source Quantum ESPRESSO suite
     for quantum simulation of materials; please cite
         "P. Giannozzi et al., J. Phys.:Condens. Matter 21 395502 (2009);
         "P. Giannozzi et al., J. Phys.:Condens. Matter 29 465901 (2017);
         "P. Giannozzi et al., J. Chem. Phys. 152 154105 (2020);
          URL http://www.quantum-espresso.org", 
     in publications or presentations arising from this work. More details at
     http://www.quantum-espresso.org/quote

     Parallel version (MPI), running on    12 processors

     MPI processes distributed on     1 nodes
     122253 MiB available memory on the printing compute node when the environment starts

     Waiting for input...
     Reading input from standard input

     Current dimensions of program PWSCF are:
     Max number of different atomic species (ntypx) = 10
     Max number of k-points (npk) =  40000
     Max angular momentum in pseudopotentials (lmaxx) =  4
     file W.pbe-spn-kjpaw_psl.1.0.0.UPF: wavefunction(s)  6S 5P 5D renormalized
     file S.pbe-n-kjpaw_psl.1.0.0.UPF: wavefunction(s)  3S 3P renormalized
     file Se.pbe-dn-kjpaw_psl.1.0.0.UPF: wavefunction(s)  4S 4P 3D renormalized
     Message from routine setup:
     using ibrav=0 with symmetry is DISCOURAGED, use correct ibrav instead

     R & G space division:  proc/nbgrp/npool/nimage =      12
     Subspace diagonalization in iterative solution of the eigenvalue problem:
     a serial algorithm will be used


     Parallelization info
     --------------------
     sticks:   dense  smooth     PW     G-vecs:    dense   smooth      PW
     Min          49      49     14                 7805     7805    1198
     Max          50      50     15                 7840     7840    1226
     Sum         595     595    169                93827    93827   14561

     Using Slab Decomposition



     bravais-lattice index     =            0
     lattice parameter (alat)  =       6.0471  a.u.
     unit-cell volume          =    1496.1227 (a.u.)^3
     number of atoms/cell      =            3
     number of atomic types    =            3
     number of electrons       =        36.00
     number of Kohn-Sham states=           18
     kinetic-energy cutoff     =      60.0000  Ry
     charge density cutoff     =     240.0000  Ry
     scf convergence threshold =      1.0E-08
     mixing beta               =       0.5000
     number of iterations used =            8  plain     mixing
     Exchange-correlation= SLA  PW   PBX  PBC
                           (   1   4   3   4   0   0   0)

     celldm(1)=   6.047124  celldm(2)=   0.000000  celldm(3)=   0.000000
     celldm(4)=   0.000000  celldm(5)=   0.000000  celldm(6)=   0.000000

     crystal axes: (cart. coord. in units of alat)
               a(1) = (   1.000000   0.000000   0.000000 )  
               a(2) = (  -0.500000   0.866025   0.000000 )  
               a(3) = (   0.000000   0.000000   7.812500 )  

     reciprocal axes: (cart. coord. in units 2 pi/alat)
               b(1) = (  1.000000  0.577350 -0.000000 )  
               b(2) = (  0.000000  1.154701  0.000000 )  
               b(3) = (  0.000000 -0.000000  0.128000 )  


     PseudoPot. # 1 for W  read from file:
     /home/mainadmin/research/danu/pseudo/W.pbe-spn-kjpaw_psl.1.0.0.UPF
     MD5 check sum: 03c3df5b60893f488392c7401945500a
     Pseudo is Projector augmented-wave + core cor, Zval = 14.0
     Generated using &quot;atomic&quot; code by A. Dal Corso  v.6.2.2
     Shape of augmentation charge: PSQ
     Using radial grid of 1273 points,  6 beta functions with: 
                l(1) =   0
                l(2) =   0
                l(3) =   1
                l(4) =   1
                l(5) =   2
                l(6) =   2
     Q(r) pseudized with 0 coefficients 


     PseudoPot. # 2 for S  read from file:
     /home/mainadmin/research/danu/pseudo/S.pbe-n-kjpaw_psl.1.0.0.UPF
     MD5 check sum: fb45dfebcf3e72a4e1bd4a866ec2e262
     Pseudo is Projector augmented-wave + core cor, Zval =  6.0
     Generated using &quot;atomic&quot; code by A. Dal Corso  v.6.3
     Shape of augmentation charge: PSQ
     Using radial grid of 1151 points,  6 beta functions with: 
                l(1) =   0
                l(2) =   0
                l(3) =   1
                l(4) =   1
                l(5) =   2
                l(6) =   2
     Q(r) pseudized with 0 coefficients 


     PseudoPot. # 3 for Se read from file:
     /home/mainadmin/research/danu/pseudo/Se.pbe-dn-kjpaw_psl.1.0.0.UPF
     MD5 check sum: ac240dd2bae32a30e0bf3a38df9c8785
     Pseudo is Projector augmented-wave + core cor, Zval = 16.0
     Generated using &quot;atomic&quot; code by A. Dal Corso  v.6.3
     Shape of augmentation charge: PSQ
     Using radial grid of 1211 points,  6 beta functions with: 
                l(1) =   0
                l(2) =   0
                l(3) =   1
                l(4) =   1
                l(5) =   2
                l(6) =   2
     Q(r) pseudized with 0 coefficients 


     atomic species   valence    mass     pseudopotential
        W             14.00   183.84000     W ( 1.00)
        S              6.00    32.06500     S ( 1.00)
        Se            16.00    78.96000     Se( 1.00)

      6 Sym. Ops. (no inversion) found



   Cartesian axes

     site n.     atom                  positions (alat units)
         1           Se  tau(   1) = (   0.5000000   0.2886751   4.5312500  )
         2           W   tau(   2) = (  -0.0000000   0.5773503   3.9062500  )
         3           S   tau(   3) = (   0.5000000   0.2886751  -4.5312500  )

     number of k points=     8
                       cart. coord. in units 2pi/alat
        k(    1) = (   0.0000000   0.0000000   0.0000000), wk =   0.0408163
        k(    2) = (   0.0000000   0.1649572   0.0000000), wk =   0.2448980
        k(    3) = (   0.0000000   0.3299144   0.0000000), wk =   0.2448980
        k(    4) = (   0.0000000   0.4948717   0.0000000), wk =   0.2448980
        k(    5) = (   0.1428571   0.2474358   0.0000000), wk =   0.2448980
        k(    6) = (   0.1428571   0.4123930   0.0000000), wk =   0.4897959
        k(    7) = (   0.1428571   0.5773503   0.0000000), wk =   0.2448980
        k(    8) = (   0.2857143   0.4948717   0.0000000), wk =   0.2448980

     Dense  grid:    93827 G-vectors     FFT dimensions: (  30,  30, 240)

     Estimated max dynamical RAM per process >      34.25 MB

     Estimated total dynamical RAM >     411.05 MB

     Check: negative core charge=   -0.000001

     Initial potential from superposition of free atoms

     starting charge      35.9993, renormalised to      36.0000

     negative rho (up, down):  5.774E-04 0.000E+00
     Starting wfcs are   26 randomized atomic wfcs
     Checking if some PAW data can be deallocated... 

     total cpu time spent up to now is        1.1 secs

     Self-consistent Calculation

     iteration #  1     ecut=    60.00 Ry     beta= 0.50
     Davidson diagonalization with overlap
     ethr =  1.00E-02,  avg # of iterations =  2.0

     Threshold (ethr) on eigenvalues was too large:
     Diagonalizing with lowered threshold

     Davidson diagonalization with overlap
     ethr =  4.62E-04,  avg # of iterations =  2.0

     negative rho (up, down):  1.119E-03 0.000E+00

     total cpu time spent up to now is        1.9 secs

     total energy              =   -1228.30544275 Ry
     estimated scf accuracy    <       0.16906311 Ry

     iteration #  2     ecut=    60.00 Ry     beta= 0.50
     Davidson diagonalization with overlap
     ethr =  4.70E-04,  avg # of iterations =  8.6

     negative rho (up, down):  1.394E-03 0.000E+00

     total cpu time spent up to now is        2.6 secs

     total energy              =   -1228.07833745 Ry
     estimated scf accuracy    <       4.12232547 Ry

     iteration #  3     ecut=    60.00 Ry     beta= 0.50
     Davidson diagonalization with overlap
     ethr =  4.70E-04,  avg # of iterations =  7.6

     negative rho (up, down):  4.254E-03 0.000E+00

     total cpu time spent up to now is        3.2 secs

     total energy              =   -1228.37221408 Ry
     estimated scf accuracy    <       0.04752041 Ry

     iteration #  4     ecut=    60.00 Ry     beta= 0.50
     Davidson diagonalization with overlap
     ethr =  1.32E-04,  avg # of iterations =  5.1

     negative rho (up, down):  7.859E-03 0.000E+00

     total cpu time spent up to now is        3.8 secs

     total energy              =   -1228.37517339 Ry
     estimated scf accuracy    <       0.10177137 Ry

     iteration #  5     ecut=    60.00 Ry     beta= 0.50
     Davidson diagonalization with overlap
     ethr =  1.32E-04,  avg # of iterations =  4.0

     negative rho (up, down):  1.496E-02 0.000E+00

     total cpu time spent up to now is        4.3 secs

     total energy              =   -1228.38584562 Ry
     estimated scf accuracy    <       0.01652377 Ry

     iteration #  6     ecut=    60.00 Ry     beta= 0.50
     Davidson diagonalization with overlap
     ethr =  4.59E-05,  avg # of iterations =  3.0

     negative rho (up, down):  3.270E-03 0.000E+00

     total cpu time spent up to now is        4.8 secs

     total energy              =   -1228.36932447 Ry
     estimated scf accuracy    <       0.01847141 Ry

     iteration #  7     ecut=    60.00 Ry     beta= 0.50
     Davidson diagonalization with overlap
     ethr =  4.59E-05,  avg # of iterations =  4.8

     negative rho (up, down):  6.792E-03 0.000E+00

     total cpu time spent up to now is        5.3 secs

     total energy              =   -1228.38023202 Ry
     estimated scf accuracy    <       0.01887338 Ry

     iteration #  8     ecut=    60.00 Ry     beta= 0.50
     Davidson diagonalization with overlap
     ethr =  4.59E-05,  avg # of iterations =  2.0

     negative rho (up, down):  1.945E-03 0.000E+00

     total cpu time spent up to now is        5.8 secs

     total energy              =   -1228.37823370 Ry
     estimated scf accuracy    <       0.01204719 Ry

     iteration #  9     ecut=    60.00 Ry     beta= 0.50
     Davidson diagonalization with overlap
     ethr =  3.35E-05,  avg # of iterations =  2.0

     negative rho (up, down):  7.899E-04 0.000E+00

     total cpu time spent up to now is        6.3 secs

     total energy              =   -1228.37821526 Ry
     estimated scf accuracy    <       0.00669439 Ry

     iteration # 10     ecut=    60.00 Ry     beta= 0.50
     Davidson diagonalization with overlap
     ethr =  1.86E-05,  avg # of iterations =  3.8

     negative rho (up, down):  7.525E-04 0.000E+00

     total cpu time spent up to now is        6.8 secs

     total energy              =   -1228.37926565 Ry
     estimated scf accuracy    <       0.00038862 Ry

     iteration # 11     ecut=    60.00 Ry     beta= 0.50
     Davidson diagonalization with overlap
     ethr =  1.08E-06,  avg # of iterations =  4.8

     negative rho (up, down):  7.610E-04 0.000E+00

     total cpu time spent up to now is        7.4 secs

     total energy              =   -1228.37920033 Ry
     estimated scf accuracy    <       0.00054981 Ry

     iteration # 12     ecut=    60.00 Ry     beta= 0.50
     Davidson diagonalization with overlap
     ethr =  1.08E-06,  avg # of iterations =  5.2

     negative rho (up, down):  7.440E-04 0.000E+00

     total cpu time spent up to now is        8.0 secs

     total energy              =   -1228.37930946 Ry
     estimated scf accuracy    <       0.00043844 Ry

     iteration # 13     ecut=    60.00 Ry     beta= 0.50
     Davidson diagonalization with overlap
     ethr =  1.08E-06,  avg # of iterations =  1.6

     negative rho (up, down):  7.416E-04 0.000E+00

     total cpu time spent up to now is        8.4 secs

     total energy              =   -1228.37927413 Ry
     estimated scf accuracy    <       0.00017942 Ry

     iteration # 14     ecut=    60.00 Ry     beta= 0.50
     Davidson diagonalization with overlap
     ethr =  4.98E-07,  avg # of iterations =  5.4

     negative rho (up, down):  7.443E-04 0.000E+00

     total cpu time spent up to now is        9.0 secs

     total energy              =   -1228.37931998 Ry
     estimated scf accuracy    <       0.00015697 Ry

     iteration # 15     ecut=    60.00 Ry     beta= 0.50
     Davidson diagonalization with overlap
     ethr =  4.36E-07,  avg # of iterations =  1.2

     negative rho (up, down):  7.442E-04 0.000E+00

     total cpu time spent up to now is        9.4 secs

     total energy              =   -1228.37931760 Ry
     estimated scf accuracy    <       0.00007922 Ry

     iteration # 16     ecut=    60.00 Ry     beta= 0.50
     Davidson diagonalization with overlap
     ethr =  2.20E-07,  avg # of iterations =  1.8

     negative rho (up, down):  7.449E-04 0.000E+00

     total cpu time spent up to now is        9.9 secs

     total energy              =   -1228.37931426 Ry
     estimated scf accuracy    <       0.00004431 Ry

     iteration # 17     ecut=    60.00 Ry     beta= 0.50
     Davidson diagonalization with overlap
     ethr =  1.23E-07,  avg # of iterations =  5.1

     negative rho (up, down):  7.468E-04 0.000E+00

     total cpu time spent up to now is       10.4 secs

     total energy              =   -1228.37932114 Ry
     estimated scf accuracy    <       0.00000059 Ry

     iteration # 18     ecut=    60.00 Ry     beta= 0.50
     Davidson diagonalization with overlap
     ethr =  1.65E-09,  avg # of iterations =  9.0

     negative rho (up, down):  7.454E-04 0.000E+00

     total cpu time spent up to now is       11.1 secs

     total energy              =   -1228.37932281 Ry
     estimated scf accuracy    <       0.00002166 Ry

     iteration # 19     ecut=    60.00 Ry     beta= 0.50
     Davidson diagonalization with overlap
     ethr =  1.65E-09,  avg # of iterations =  1.0

     negative rho (up, down):  7.449E-04 0.000E+00

     total cpu time spent up to now is       11.5 secs

     total energy              =   -1228.37932264 Ry
     estimated scf accuracy    <       0.00002107 Ry

     iteration # 20     ecut=    60.00 Ry     beta= 0.50
     Davidson diagonalization with overlap
     ethr =  1.65E-09,  avg # of iterations =  1.0

     negative rho (up, down):  7.454E-04 0.000E+00

     total cpu time spent up to now is       12.0 secs

     total energy              =   -1228.37932186 Ry
     estimated scf accuracy    <       0.00001990 Ry

     iteration # 21     ecut=    60.00 Ry     beta= 0.50
     Davidson diagonalization with overlap
     ethr =  1.65E-09,  avg # of iterations =  4.0

     negative rho (up, down):  7.486E-04 0.000E+00

     total cpu time spent up to now is       12.5 secs

     total energy              =   -1228.37932160 Ry
     estimated scf accuracy    <       0.00001299 Ry

     iteration # 22     ecut=    60.00 Ry     beta= 0.50
     Davidson diagonalization with overlap
     ethr =  1.65E-09,  avg # of iterations =  2.5

     negative rho (up, down):  7.481E-04 0.000E+00

     total cpu time spent up to now is       13.0 secs

     total energy              =   -1228.37932019 Ry
     estimated scf accuracy    <       0.00001016 Ry

     iteration # 23     ecut=    60.00 Ry     beta= 0.50
     Davidson diagonalization with overlap
     ethr =  1.65E-09,  avg # of iterations =  7.2

     negative rho (up, down):  7.477E-04 0.000E+00

     total cpu time spent up to now is       13.6 secs

     total energy              =   -1228.37932100 Ry
     estimated scf accuracy    <       0.00000007 Ry

     iteration # 24     ecut=    60.00 Ry     beta= 0.50
     Davidson diagonalization with overlap
     ethr =  2.04E-10,  avg # of iterations =  6.0

     negative rho (up, down):  7.471E-04 0.000E+00

     total cpu time spent up to now is       14.2 secs

     total energy              =   -1228.37932107 Ry
     estimated scf accuracy    <       0.00000097 Ry

     iteration # 25     ecut=    60.00 Ry     beta= 0.50
     Davidson diagonalization with overlap
     ethr =  2.04E-10,  avg # of iterations =  2.0

     negative rho (up, down):  7.462E-04 0.000E+00

     total cpu time spent up to now is       14.7 secs

     total energy              =   -1228.37932091 Ry
     estimated scf accuracy    <       0.00000107 Ry

     iteration # 26     ecut=    60.00 Ry     beta= 0.50
     Davidson diagonalization with overlap
     ethr =  2.04E-10,  avg # of iterations =  6.1

     negative rho (up, down):  7.470E-04 0.000E+00

     total cpu time spent up to now is       15.3 secs

     total energy              =   -1228.37932097 Ry
     estimated scf accuracy    <       0.00000006 Ry

     iteration # 27     ecut=    60.00 Ry     beta= 0.50
     Davidson diagonalization with overlap
     ethr =  1.56E-10,  avg # of iterations =  2.0

     negative rho (up, down):  7.469E-04 0.000E+00

     total cpu time spent up to now is       15.8 secs

     total energy              =   -1228.37932097 Ry
     estimated scf accuracy    <       0.00000003 Ry

     iteration # 28     ecut=    60.00 Ry     beta= 0.50
     Davidson diagonalization with overlap
     ethr =  9.32E-11,  avg # of iterations =  1.0

     negative rho (up, down):  7.472E-04 0.000E+00

     total cpu time spent up to now is       16.2 secs

     total energy              =   -1228.37932097 Ry
     estimated scf accuracy    <       0.00000004 Ry

     iteration # 29     ecut=    60.00 Ry     beta= 0.50
     Davidson diagonalization with overlap
     ethr =  9.32E-11,  avg # of iterations =  3.6

     negative rho (up, down):  7.474E-04 0.000E+00

     total cpu time spent up to now is       16.7 secs

     End of self-consistent calculation

          k = 0.0000 0.0000 0.0000 ( 11811 PWs)   bands (ev):

   -75.2387 -48.4219 -48.4219 -48.4185 -48.4171 -48.4171 -39.4098 -39.1507
   -39.1507 -14.9942 -13.8044  -6.8574  -3.7205  -2.1978  -1.8507  -1.8507
    -0.7814  -0.7814

          k = 0.0000 0.1650 0.0000 ( 11795 PWs)   bands (ev):

   -75.2361 -48.4221 -48.4209 -48.4179 -48.4174 -48.4171 -39.4020 -39.2015
   -39.1630 -14.7094 -13.5843  -6.4182  -3.7952  -2.6904  -2.0502  -1.5453
    -1.5444  -1.2299

          k = 0.0000 0.3299 0.0000 ( 11759 PWs)   bands (ev):

   -75.2303 -48.4224 -48.4190 -48.4184 -48.4167 -48.4162 -39.3845 -39.3141
   -39.1904 -13.9613 -13.0081  -5.4690  -4.5399  -4.1289  -3.0617  -2.1202
    -1.9761  -1.0225

          k = 0.0000 0.4949 0.0000 ( 11725 PWs)   bands (ev):

   -75.2256 -48.4229 -48.4191 -48.4184 -48.4153 -48.4146 -39.4030 -39.3704
   -39.2124 -13.1805 -12.4078  -6.2952  -5.3236  -4.4657  -3.4781  -2.4426
    -2.0650  -0.9500

          k = 0.1429 0.2474 0.0000 ( 11777 PWs)   bands (ev):

   -75.2319 -48.4219 -48.4198 -48.4180 -48.4174 -48.4163 -39.3894 -39.2759
   -39.1901 -14.1895 -13.1829  -5.6599  -3.9703  -3.8351  -2.9091  -2.0868
    -1.7368  -1.2670

          k = 0.1429 0.4124 0.0000 ( 11739 PWs)   bands (ev):

   -75.2267 -48.4218 -48.4189 -48.4186 -48.4167 -48.4148 -39.3737 -39.3620
   -39.2292 -13.3896 -12.5659  -5.4887  -4.7866  -4.4649  -3.7037  -2.6869
    -2.4630  -1.2775

          k = 0.1429 0.5774 0.0000 ( 11686 PWs)   bands (ev):

   -75.2243 -48.4218 -48.4189 -48.4187 -48.4155 -48.4145 -39.3996 -39.3666
   -39.2471 -12.9443 -12.2184  -6.2721  -5.3256  -4.2901  -3.5128  -3.1362
    -2.6726  -1.2265

          k = 0.2857 0.4949 0.0000 ( 11714 PWs)   bands (ev):

   -75.2238 -48.4205 -48.4193 -48.4180 -48.4168 -48.4147 -39.3652 -39.3643
   -39.2965 -12.8522 -12.1407  -5.6487  -5.0564  -4.2030  -4.0616  -3.7281
    -3.3173  -1.0777

     highest occupied level (ev):    -0.7814

!    total energy              =   -1228.37932097 Ry
     total all-electron energy =    -37944.469751 Ry
     estimated scf accuracy    <          8.0E-09 Ry

     The total energy is the sum of the following terms:
     one-electron contribution =   -2749.50213730 Ry
     hartree contribution      =    1372.31023121 Ry
     xc contribution           =     -73.23279170 Ry
     ewald contribution        =    1014.62638954 Ry
     one-center paw contrib.   =    -792.58101272 Ry

     convergence has been achieved in  29 iterations

     Writing all to output data dir ./work/WSSe.save/

     init_run     :      0.80s CPU      0.86s WALL (       1 calls)
     electrons    :     14.96s CPU     15.61s WALL (       1 calls)

     Called by init_run:
     wfcinit      :      0.12s CPU      0.14s WALL (       1 calls)
     potinit      :      0.16s CPU      0.17s WALL (       1 calls)
     hinit0       :      0.43s CPU      0.44s WALL (       1 calls)

     Called by electrons:
     c_bands      :      7.75s CPU      8.23s WALL (      30 calls)
     sum_band     :      3.36s CPU      3.46s WALL (      30 calls)
     v_of_rho     :      0.17s CPU      0.19s WALL (      30 calls)
     newd         :      2.13s CPU      2.16s WALL (      30 calls)
     PAW_pot      :      1.52s CPU      1.57s WALL (      30 calls)
     mix_rho      :      0.10s CPU      0.10s WALL (      30 calls)

     Called by c_bands:
     init_us_2    :      0.14s CPU      0.15s WALL (     488 calls)
     init_us_2:cp :      0.14s CPU      0.15s WALL (     488 calls)
     cegterg      :      7.35s CPU      7.82s WALL (     240 calls)

     Called by *egterg:
     cdiaghg      :      0.30s CPU      0.31s WALL (    1156 calls)
     h_psi        :      4.76s CPU      5.18s WALL (    1172 calls)
     s_psi        :      0.60s CPU      0.62s WALL (    1172 calls)
     g_psi        :      0.02s CPU      0.03s WALL (     924 calls)

     Called by h_psi:
     h_psi:calbec :      0.66s CPU      0.72s WALL (    1172 calls)
     vloc_psi     :      3.50s CPU      3.82s WALL (    1172 calls)
     add_vuspsi   :      0.58s CPU      0.62s WALL (    1172 calls)

     General routines
     calbec       :      0.88s CPU      0.97s WALL (    1412 calls)
     fft          :      0.34s CPU      0.35s WALL (     331 calls)
     ffts         :      0.01s CPU      0.01s WALL (      30 calls)
     fftw         :      3.83s CPU      4.18s WALL (   27512 calls)

     Parallel routines

     PWSCF        :     16.01s CPU     16.75s WALL


   This run was terminated on:  11: 7:27  30Jan2023            

=------------------------------------------------------------------------------=
   JOB DONE.
=------------------------------------------------------------------------------=
