
     Program PWSCF v.7.1 starts on 30Jan2023 at 11: 7:43 

     This program is part of the open-source Quantum ESPRESSO suite
     for quantum simulation of materials; please cite
         "P. Giannozzi et al., J. Phys.:Condens. Matter 21 395502 (2009);
         "P. Giannozzi et al., J. Phys.:Condens. Matter 29 465901 (2017);
         "P. Giannozzi et al., J. Chem. Phys. 152 154105 (2020);
          URL http://www.quantum-espresso.org", 
     in publications or presentations arising from this work. More details at
     http://www.quantum-espresso.org/quote

     Parallel version (MPI), running on    12 processors

     MPI processes distributed on     1 nodes
     122243 MiB available memory on the printing compute node when the environment starts

     Waiting for input...
     Reading input from standard input

     Current dimensions of program PWSCF are:
     Max number of different atomic species (ntypx) = 10
     Max number of k-points (npk) =  40000
     Max angular momentum in pseudopotentials (lmaxx) =  4
     file W.pbe-spn-kjpaw_psl.1.0.0.UPF: wavefunction(s)  6S 5P 5D renormalized
     file S.pbe-n-kjpaw_psl.1.0.0.UPF: wavefunction(s)  3S 3P renormalized
     file Se.pbe-dn-kjpaw_psl.1.0.0.UPF: wavefunction(s)  4S 4P 3D renormalized
     Message from routine setup:
     using ibrav=0 with symmetry is DISCOURAGED, use correct ibrav instead

     R & G space division:  proc/nbgrp/npool/nimage =      12
     Subspace diagonalization in iterative solution of the eigenvalue problem:
     a serial algorithm will be used


     Parallelization info
     --------------------
     sticks:   dense  smooth     PW     G-vecs:    dense   smooth      PW
     Min          49      49     15                 7805     7805    1255
     Max          50      50     16                 7840     7840    1268
     Sum         595     595    187                93827    93827   15121

     Using Slab Decomposition



     bravais-lattice index     =            0
     lattice parameter (alat)  =       6.0471  a.u.
     unit-cell volume          =    1496.1227 (a.u.)^3
     number of atoms/cell      =            3
     number of atomic types    =            3
     number of electrons       =        36.00
     number of Kohn-Sham states=           18
     kinetic-energy cutoff     =      60.0000  Ry
     charge density cutoff     =     240.0000  Ry
     scf convergence threshold =      1.0E-08
     mixing beta               =       0.5000
     number of iterations used =            8  plain     mixing
     Exchange-correlation= SLA  PW   PBX  PBC
                           (   1   4   3   4   0   0   0)

     celldm(1)=   6.047124  celldm(2)=   0.000000  celldm(3)=   0.000000
     celldm(4)=   0.000000  celldm(5)=   0.000000  celldm(6)=   0.000000

     crystal axes: (cart. coord. in units of alat)
               a(1) = (   1.000000   0.000000   0.000000 )  
               a(2) = (  -0.500000   0.866025   0.000000 )  
               a(3) = (   0.000000   0.000000   7.812500 )  

     reciprocal axes: (cart. coord. in units 2 pi/alat)
               b(1) = (  1.000000  0.577350 -0.000000 )  
               b(2) = (  0.000000  1.154701  0.000000 )  
               b(3) = (  0.000000 -0.000000  0.128000 )  


     PseudoPot. # 1 for W  read from file:
     /home/mainadmin/research/danu/pseudo/W.pbe-spn-kjpaw_psl.1.0.0.UPF
     MD5 check sum: 03c3df5b60893f488392c7401945500a
     Pseudo is Projector augmented-wave + core cor, Zval = 14.0
     Generated using &quot;atomic&quot; code by A. Dal Corso  v.6.2.2
     Shape of augmentation charge: PSQ
     Using radial grid of 1273 points,  6 beta functions with: 
                l(1) =   0
                l(2) =   0
                l(3) =   1
                l(4) =   1
                l(5) =   2
                l(6) =   2
     Q(r) pseudized with 0 coefficients 


     PseudoPot. # 2 for S  read from file:
     /home/mainadmin/research/danu/pseudo/S.pbe-n-kjpaw_psl.1.0.0.UPF
     MD5 check sum: fb45dfebcf3e72a4e1bd4a866ec2e262
     Pseudo is Projector augmented-wave + core cor, Zval =  6.0
     Generated using &quot;atomic&quot; code by A. Dal Corso  v.6.3
     Shape of augmentation charge: PSQ
     Using radial grid of 1151 points,  6 beta functions with: 
                l(1) =   0
                l(2) =   0
                l(3) =   1
                l(4) =   1
                l(5) =   2
                l(6) =   2
     Q(r) pseudized with 0 coefficients 


     PseudoPot. # 3 for Se read from file:
     /home/mainadmin/research/danu/pseudo/Se.pbe-dn-kjpaw_psl.1.0.0.UPF
     MD5 check sum: ac240dd2bae32a30e0bf3a38df9c8785
     Pseudo is Projector augmented-wave + core cor, Zval = 16.0
     Generated using &quot;atomic&quot; code by A. Dal Corso  v.6.3
     Shape of augmentation charge: PSQ
     Using radial grid of 1211 points,  6 beta functions with: 
                l(1) =   0
                l(2) =   0
                l(3) =   1
                l(4) =   1
                l(5) =   2
                l(6) =   2
     Q(r) pseudized with 0 coefficients 


     atomic species   valence    mass     pseudopotential
        W             14.00   183.84000     W ( 1.00)
        S              6.00    32.06500     S ( 1.00)
        Se            16.00    78.96000     Se( 1.00)

      6 Sym. Ops. (no inversion) found



   Cartesian axes

     site n.     atom                  positions (alat units)
         1           Se  tau(   1) = (   0.5000000   0.2886751   4.5312500  )
         2           W   tau(   2) = (  -0.0000000   0.5773503   3.9062500  )
         3           S   tau(   3) = (   0.5000000   0.2886751  -4.5312500  )

     number of k points=    12
                       cart. coord. in units 2pi/alat
        k(    1) = (   0.0000000   0.0000000   0.0000000), wk =   0.0246914
        k(    2) = (   0.0000000   0.1283001   0.0000000), wk =   0.1481481
        k(    3) = (   0.0000000   0.2566001   0.0000000), wk =   0.1481481
        k(    4) = (   0.0000000   0.3849002   0.0000000), wk =   0.1481481
        k(    5) = (   0.0000000   0.5132002   0.0000000), wk =   0.1481481
        k(    6) = (   0.1111111   0.1924501   0.0000000), wk =   0.1481481
        k(    7) = (   0.1111111   0.3207501   0.0000000), wk =   0.2962963
        k(    8) = (   0.1111111   0.4490502   0.0000000), wk =   0.2962963
        k(    9) = (   0.1111111   0.5773503   0.0000000), wk =   0.1481481
        k(   10) = (   0.2222222   0.3849002   0.0000000), wk =   0.1481481
        k(   11) = (   0.2222222   0.5132002   0.0000000), wk =   0.2962963
        k(   12) = (   0.3333333   0.5773503   0.0000000), wk =   0.0493827

     Dense  grid:    93827 G-vectors     FFT dimensions: (  30,  30, 240)

     Estimated max dynamical RAM per process >      35.33 MB

     Estimated total dynamical RAM >     423.94 MB

     Check: negative core charge=   -0.000001

     Initial potential from superposition of free atoms

     starting charge      35.9993, renormalised to      36.0000

     negative rho (up, down):  5.774E-04 0.000E+00
     Starting wfcs are   26 randomized atomic wfcs
     Checking if some PAW data can be deallocated... 

     total cpu time spent up to now is        1.3 secs

     Self-consistent Calculation

     iteration #  1     ecut=    60.00 Ry     beta= 0.50
     Davidson diagonalization with overlap
     ethr =  1.00E-02,  avg # of iterations =  2.0

     Threshold (ethr) on eigenvalues was too large:
     Diagonalizing with lowered threshold

     Davidson diagonalization with overlap
     ethr =  4.60E-04,  avg # of iterations =  2.2

     negative rho (up, down):  1.094E-03 0.000E+00

     total cpu time spent up to now is        2.4 secs

     total energy              =   -1228.30612672 Ry
     estimated scf accuracy    <       0.16818823 Ry

     iteration #  2     ecut=    60.00 Ry     beta= 0.50
     Davidson diagonalization with overlap
     ethr =  4.67E-04,  avg # of iterations =  8.1

     negative rho (up, down):  1.395E-03 0.000E+00

     total cpu time spent up to now is        3.2 secs

     total energy              =   -1228.07884149 Ry
     estimated scf accuracy    <       4.08906797 Ry

     iteration #  3     ecut=    60.00 Ry     beta= 0.50
     Davidson diagonalization with overlap
     ethr =  4.67E-04,  avg # of iterations =  7.8

     negative rho (up, down):  4.210E-03 0.000E+00

     total cpu time spent up to now is        4.1 secs

     total energy              =   -1228.37204629 Ry
     estimated scf accuracy    <       0.05392241 Ry

     iteration #  4     ecut=    60.00 Ry     beta= 0.50
     Davidson diagonalization with overlap
     ethr =  1.50E-04,  avg # of iterations =  4.5

     negative rho (up, down):  7.752E-03 0.000E+00

     total cpu time spent up to now is        4.8 secs

     total energy              =   -1228.37555906 Ry
     estimated scf accuracy    <       0.09282268 Ry

     iteration #  5     ecut=    60.00 Ry     beta= 0.50
     Davidson diagonalization with overlap
     ethr =  1.50E-04,  avg # of iterations =  3.7

     negative rho (up, down):  1.500E-02 0.000E+00

     total cpu time spent up to now is        5.4 secs

     total energy              =   -1228.38556587 Ry
     estimated scf accuracy    <       0.01523839 Ry

     iteration #  6     ecut=    60.00 Ry     beta= 0.50
     Davidson diagonalization with overlap
     ethr =  4.23E-05,  avg # of iterations =  3.6

     negative rho (up, down):  3.675E-03 0.000E+00

     total cpu time spent up to now is        6.1 secs

     total energy              =   -1228.37000656 Ry
     estimated scf accuracy    <       0.01609694 Ry

     iteration #  7     ecut=    60.00 Ry     beta= 0.50
     Davidson diagonalization with overlap
     ethr =  4.23E-05,  avg # of iterations =  5.1

     negative rho (up, down):  7.400E-03 0.000E+00

     total cpu time spent up to now is        6.8 secs

     total energy              =   -1228.38076931 Ry
     estimated scf accuracy    <       0.02856598 Ry

     iteration #  8     ecut=    60.00 Ry     beta= 0.50
     Davidson diagonalization with overlap
     ethr =  4.23E-05,  avg # of iterations =  2.0

     negative rho (up, down):  1.827E-03 0.000E+00

     total cpu time spent up to now is        7.5 secs

     total energy              =   -1228.37740392 Ry
     estimated scf accuracy    <       0.01842582 Ry

     iteration #  9     ecut=    60.00 Ry     beta= 0.50
     Davidson diagonalization with overlap
     ethr =  4.23E-05,  avg # of iterations =  2.0

     negative rho (up, down):  8.125E-04 0.000E+00

     total cpu time spent up to now is        8.1 secs

     total energy              =   -1228.37777708 Ry
     estimated scf accuracy    <       0.00898003 Ry

     iteration # 10     ecut=    60.00 Ry     beta= 0.50
     Davidson diagonalization with overlap
     ethr =  2.49E-05,  avg # of iterations =  4.0

     negative rho (up, down):  7.622E-04 0.000E+00

     total cpu time spent up to now is        8.8 secs

     total energy              =   -1228.37918769 Ry
     estimated scf accuracy    <       0.00070265 Ry

     iteration # 11     ecut=    60.00 Ry     beta= 0.50
     Davidson diagonalization with overlap
     ethr =  1.95E-06,  avg # of iterations =  4.8

     negative rho (up, down):  7.585E-04 0.000E+00

     total cpu time spent up to now is        9.5 secs

     total energy              =   -1228.37902390 Ry
     estimated scf accuracy    <       0.00102122 Ry

     iteration # 12     ecut=    60.00 Ry     beta= 0.50
     Davidson diagonalization with overlap
     ethr =  1.95E-06,  avg # of iterations =  5.1

     negative rho (up, down):  7.420E-04 0.000E+00

     total cpu time spent up to now is       10.2 secs

     total energy              =   -1228.37919925 Ry
     estimated scf accuracy    <       0.00076419 Ry

     iteration # 13     ecut=    60.00 Ry     beta= 0.50
     Davidson diagonalization with overlap
     ethr =  1.95E-06,  avg # of iterations =  2.2

     negative rho (up, down):  7.418E-04 0.000E+00

     total cpu time spent up to now is       10.8 secs

     total energy              =   -1228.37919779 Ry
     estimated scf accuracy    <       0.00014808 Ry

     iteration # 14     ecut=    60.00 Ry     beta= 0.50
     Davidson diagonalization with overlap
     ethr =  4.11E-07,  avg # of iterations =  5.8

     negative rho (up, down):  7.444E-04 0.000E+00

     total cpu time spent up to now is       11.5 secs

     total energy              =   -1228.37925235 Ry
     estimated scf accuracy    <       0.00030587 Ry

     iteration # 15     ecut=    60.00 Ry     beta= 0.50
     Davidson diagonalization with overlap
     ethr =  4.11E-07,  avg # of iterations =  1.3

     negative rho (up, down):  7.439E-04 0.000E+00

     total cpu time spent up to now is       12.1 secs

     total energy              =   -1228.37924046 Ry
     estimated scf accuracy    <       0.00017812 Ry

     iteration # 16     ecut=    60.00 Ry     beta= 0.50
     Davidson diagonalization with overlap
     ethr =  4.11E-07,  avg # of iterations =  1.8

     negative rho (up, down):  7.453E-04 0.000E+00

     total cpu time spent up to now is       12.7 secs

     total energy              =   -1228.37923391 Ry
     estimated scf accuracy    <       0.00008304 Ry

     iteration # 17     ecut=    60.00 Ry     beta= 0.50
     Davidson diagonalization with overlap
     ethr =  2.31E-07,  avg # of iterations =  4.2

     negative rho (up, down):  7.466E-04 0.000E+00

     total cpu time spent up to now is       13.4 secs

     total energy              =   -1228.37924776 Ry
     estimated scf accuracy    <       0.00000196 Ry

     iteration # 18     ecut=    60.00 Ry     beta= 0.50
     Davidson diagonalization with overlap
     ethr =  5.44E-09,  avg # of iterations =  8.2

     negative rho (up, down):  7.450E-04 0.000E+00

     total cpu time spent up to now is       14.2 secs

     total energy              =   -1228.37925076 Ry
     estimated scf accuracy    <       0.00003334 Ry

     iteration # 19     ecut=    60.00 Ry     beta= 0.50
     Davidson diagonalization with overlap
     ethr =  5.44E-09,  avg # of iterations =  1.0

     negative rho (up, down):  7.459E-04 0.000E+00

     total cpu time spent up to now is       14.8 secs

     total energy              =   -1228.37924881 Ry
     estimated scf accuracy    <       0.00003326 Ry

     iteration # 20     ecut=    60.00 Ry     beta= 0.50
     Davidson diagonalization with overlap
     ethr =  5.44E-09,  avg # of iterations =  2.9

     negative rho (up, down):  7.472E-04 0.000E+00

     total cpu time spent up to now is       15.4 secs

     total energy              =   -1228.37924532 Ry
     estimated scf accuracy    <       0.00001921 Ry

     iteration # 21     ecut=    60.00 Ry     beta= 0.50
     Davidson diagonalization with overlap
     ethr =  5.44E-09,  avg # of iterations =  6.4

     negative rho (up, down):  7.486E-04 0.000E+00

     total cpu time spent up to now is       16.2 secs

     total energy              =   -1228.37924811 Ry
     estimated scf accuracy    <       0.00000084 Ry

     iteration # 22     ecut=    60.00 Ry     beta= 0.50
     Davidson diagonalization with overlap
     ethr =  2.32E-09,  avg # of iterations =  5.2

     negative rho (up, down):  7.494E-04 0.000E+00

     total cpu time spent up to now is       17.0 secs

     total energy              =   -1228.37924903 Ry
     estimated scf accuracy    <       0.00000630 Ry

     iteration # 23     ecut=    60.00 Ry     beta= 0.50
     Davidson diagonalization with overlap
     ethr =  2.32E-09,  avg # of iterations =  4.2

     negative rho (up, down):  7.502E-04 0.000E+00

     total cpu time spent up to now is       17.7 secs

     total energy              =   -1228.37924802 Ry
     estimated scf accuracy    <       0.00001490 Ry

     iteration # 24     ecut=    60.00 Ry     beta= 0.50
     Davidson diagonalization with overlap
     ethr =  2.32E-09,  avg # of iterations =  3.8

     negative rho (up, down):  7.463E-04 0.000E+00

     total cpu time spent up to now is       18.3 secs

     total energy              =   -1228.37924888 Ry
     estimated scf accuracy    <       0.00000647 Ry

     iteration # 25     ecut=    60.00 Ry     beta= 0.50
     Davidson diagonalization with overlap
     ethr =  2.32E-09,  avg # of iterations =  3.8

     negative rho (up, down):  7.469E-04 0.000E+00

     total cpu time spent up to now is       19.0 secs

     total energy              =   -1228.37924636 Ry
     estimated scf accuracy    <       0.00001316 Ry

     iteration # 26     ecut=    60.00 Ry     beta= 0.50
     Davidson diagonalization with overlap
     ethr =  2.32E-09,  avg # of iterations =  7.4

     negative rho (up, down):  7.465E-04 0.000E+00

     total cpu time spent up to now is       19.8 secs

     total energy              =   -1228.37924769 Ry
     estimated scf accuracy    <       0.00000022 Ry

     iteration # 27     ecut=    60.00 Ry     beta= 0.50
     Davidson diagonalization with overlap
     ethr =  6.23E-10,  avg # of iterations =  4.0

     negative rho (up, down):  7.463E-04 0.000E+00

     total cpu time spent up to now is       20.5 secs

     End of self-consistent calculation

          k = 0.0000 0.0000 0.0000 ( 11811 PWs)   bands (ev):

   -75.2376 -48.4204 -48.4204 -48.4170 -48.4156 -48.4156 -39.4082 -39.1498
   -39.1498 -14.9929 -13.8024  -6.8564  -3.7192  -2.1965  -1.8497  -1.8497
    -0.7798  -0.7798

          k = 0.0000 0.1283 0.0000 ( 11803 PWs)   bands (ev):

   -75.2360 -48.4205 -48.4198 -48.4166 -48.4158 -48.4156 -39.4034 -39.1814
   -39.1575 -14.8187 -13.6677  -6.5853  -3.7617  -2.3801  -2.0941  -1.6571
    -1.2425  -1.0717

          k = 0.0000 0.2566 0.0000 ( 11779 PWs)   bands (ev):

   -75.2320 -48.4207 -48.4182 -48.4165 -48.4155 -48.4154 -39.3912 -39.2607
   -39.1767 -14.3327 -13.2926  -5.8819  -3.9768  -3.6092  -2.4642  -2.0086
    -1.6561  -1.2190

          k = 0.0000 0.3849 0.0000 ( 11771 PWs)   bands (ev):

   -75.2273 -48.4211 -48.4172 -48.4171 -48.4147 -48.4140 -39.3773 -39.3497
   -39.1986 -13.6674 -12.7814  -5.4790  -4.8971  -4.4181  -3.3038  -2.1820
    -2.1754  -0.9518

          k = 0.0000 0.5132 0.0000 ( 11717 PWs)   bands (ev):

   -75.2243 -48.4213 -48.4176 -48.4169 -48.4136 -48.4130 -39.4071 -39.3681
   -39.2128 -13.1268 -12.3650  -6.3898  -5.3868  -4.4508  -3.4871  -2.4654
    -2.0302  -0.9528

          k = 0.1111 0.1925 0.0000 ( 11801 PWs)   bands (ev):

   -75.2332 -48.4205 -48.4189 -48.4162 -48.4160 -48.4154 -39.3949 -39.2341
   -39.1737 -14.4879 -13.4121  -6.0873  -3.8487  -3.2256  -2.1866  -1.9992
    -1.4393  -1.3978

          k = 0.1111 0.3208 0.0000 ( 11776 PWs)   bands (ev):

   -75.2288 -48.4205 -48.4177 -48.4168 -48.4156 -48.4142 -39.3818 -39.3117
   -39.2008 -13.9052 -12.9629  -5.3241  -4.4965  -4.0619  -3.3398  -2.2453
    -2.0059  -1.1778

          k = 0.1111 0.4491 0.0000 ( 11718 PWs)   bands (ev):

   -75.2250 -48.4206 -48.4173 -48.4171 -48.4146 -48.4131 -39.3789 -39.3701
   -39.2248 -13.2758 -12.4778  -5.8422  -5.0070  -4.4466  -3.5738  -2.6503
    -2.3967  -1.2228

          k = 0.1111 0.5774 0.0000 ( 11682 PWs)   bands (ev):

   -75.2235 -48.4207 -48.4175 -48.4171 -48.4138 -48.4129 -39.4051 -39.3657
   -39.2343 -12.9802 -12.2471  -6.3757  -5.3864  -4.3377  -3.5024  -2.9163
    -2.3809  -1.2117

          k = 0.2222 0.3849 0.0000 ( 11727 PWs)   bands (ev):

   -75.2253 -48.4197 -48.4176 -48.4169 -48.4156 -48.4132 -39.3711 -39.3546
   -39.2428 -13.3386 -12.5237  -5.2940  -4.6125  -4.4534  -3.9782  -2.9578
    -2.5941  -1.3220

          k = 0.2222 0.5132 0.0000 ( 11697 PWs)   bands (ev):

   -75.2230 -48.4194 -48.4175 -48.4169 -48.4149 -48.4131 -39.3750 -39.3641
   -39.2777 -12.9011 -12.1797  -5.8366  -5.0769  -4.2246  -3.8479  -3.5087
    -3.2128  -1.1582

          k = 0.3333 0.5774 0.0000 ( 11694 PWs)   bands (ev):

   -75.2221 -48.4185 -48.4180 -48.4158 -48.4156 -48.4135 -39.3617 -39.3404
   -39.3318 -12.7445 -12.0524  -5.3718  -5.3363  -4.3852  -3.9882  -3.9140
    -3.5111  -0.9041

     highest occupied level (ev):    -0.7798

!    total energy              =   -1228.37924772 Ry
     total all-electron energy =    -37944.469678 Ry
     estimated scf accuracy    <          5.9E-09 Ry

     The total energy is the sum of the following terms:
     one-electron contribution =   -2749.50595479 Ry
     hartree contribution      =    1372.31423804 Ry
     xc contribution           =     -73.23292109 Ry
     ewald contribution        =    1014.62638954 Ry
     one-center paw contrib.   =    -792.58099942 Ry

     convergence has been achieved in  27 iterations

     Writing all to output data dir ./work/WSSe.save/

     init_run     :      0.96s CPU      1.02s WALL (       1 calls)
     electrons    :     18.39s CPU     19.25s WALL (       1 calls)

     Called by init_run:
     wfcinit      :      0.19s CPU      0.21s WALL (       1 calls)
     potinit      :      0.16s CPU      0.17s WALL (       1 calls)
     hinit0       :      0.52s CPU      0.52s WALL (       1 calls)

     Called by electrons:
     c_bands      :     11.23s CPU     11.94s WALL (      28 calls)
     sum_band     :      3.56s CPU      3.68s WALL (      28 calls)
     v_of_rho     :      0.16s CPU      0.17s WALL (      28 calls)
     newd         :      1.98s CPU      2.02s WALL (      28 calls)
     PAW_pot      :      1.43s CPU      1.45s WALL (      28 calls)
     mix_rho      :      0.09s CPU      0.09s WALL (      28 calls)

     Called by c_bands:
     init_us_2    :      0.21s CPU      0.22s WALL (     684 calls)
     init_us_2:cp :      0.20s CPU      0.22s WALL (     684 calls)
     cegterg      :     10.67s CPU     11.36s WALL (     336 calls)

     Called by *egterg:
     cdiaghg      :      0.45s CPU      0.47s WALL (    1726 calls)
     h_psi        :      6.95s CPU      7.54s WALL (    1750 calls)
     s_psi        :      0.90s CPU      0.94s WALL (    1750 calls)
     g_psi        :      0.04s CPU      0.04s WALL (    1402 calls)

     Called by h_psi:
     h_psi:calbec :      0.94s CPU      1.03s WALL (    1750 calls)
     vloc_psi     :      5.11s CPU      5.54s WALL (    1750 calls)
     add_vuspsi   :      0.88s CPU      0.95s WALL (    1750 calls)

     General routines
     calbec       :      1.25s CPU      1.37s WALL (    2086 calls)
     fft          :      0.34s CPU      0.35s WALL (     309 calls)
     ffts         :      0.01s CPU      0.01s WALL (      28 calls)
     fftw         :      5.56s CPU      6.03s WALL (   39414 calls)

     Parallel routines

     PWSCF        :     19.61s CPU     20.56s WALL


   This run was terminated on:  11: 8: 4  30Jan2023            

=------------------------------------------------------------------------------=
   JOB DONE.
=------------------------------------------------------------------------------=
