
     Program PWSCF v.7.1 starts on 30Jan2023 at 11:18:43 

     This program is part of the open-source Quantum ESPRESSO suite
     for quantum simulation of materials; please cite
         "P. Giannozzi et al., J. Phys.:Condens. Matter 21 395502 (2009);
         "P. Giannozzi et al., J. Phys.:Condens. Matter 29 465901 (2017);
         "P. Giannozzi et al., J. Chem. Phys. 152 154105 (2020);
          URL http://www.quantum-espresso.org", 
     in publications or presentations arising from this work. More details at
     http://www.quantum-espresso.org/quote

     Parallel version (MPI), running on    12 processors

     MPI processes distributed on     1 nodes
     122084 MiB available memory on the printing compute node when the environment starts

     Waiting for input...
     Reading input from standard input

     Current dimensions of program PWSCF are:
     Max number of different atomic species (ntypx) = 10
     Max number of k-points (npk) =  40000
     Max angular momentum in pseudopotentials (lmaxx) =  4
     file W.pbe-spn-kjpaw_psl.1.0.0.UPF: wavefunction(s)  6S 5P 5D renormalized
     file S.pbe-n-kjpaw_psl.1.0.0.UPF: wavefunction(s)  3S 3P renormalized
     file Se.pbe-dn-kjpaw_psl.1.0.0.UPF: wavefunction(s)  4S 4P 3D renormalized
     Message from routine setup:
     using ibrav=0 with symmetry is DISCOURAGED, use correct ibrav instead

     R & G space division:  proc/nbgrp/npool/nimage =      12
     Subspace diagonalization in iterative solution of the eigenvalue problem:
     a serial algorithm will be used


     Parallelization info
     --------------------
     sticks:   dense  smooth     PW     G-vecs:    dense   smooth      PW
     Min          49      49     15                 7805     7805    1255
     Max          50      50     16                 7840     7840    1268
     Sum         595     595    187                93827    93827   15121

     Using Slab Decomposition



     bravais-lattice index     =            0
     lattice parameter (alat)  =       6.0471  a.u.
     unit-cell volume          =    1496.1227 (a.u.)^3
     number of atoms/cell      =            3
     number of atomic types    =            3
     number of electrons       =        36.00
     number of Kohn-Sham states=           18
     kinetic-energy cutoff     =      60.0000  Ry
     charge density cutoff     =     240.0000  Ry
     scf convergence threshold =      1.0E-08
     mixing beta               =       0.5000
     number of iterations used =            8  plain     mixing
     Exchange-correlation= SLA  PW   PBX  PBC
                           (   1   4   3   4   0   0   0)

     celldm(1)=   6.047124  celldm(2)=   0.000000  celldm(3)=   0.000000
     celldm(4)=   0.000000  celldm(5)=   0.000000  celldm(6)=   0.000000

     crystal axes: (cart. coord. in units of alat)
               a(1) = (   1.000000   0.000000   0.000000 )  
               a(2) = (  -0.500000   0.866025   0.000000 )  
               a(3) = (   0.000000   0.000000   7.812500 )  

     reciprocal axes: (cart. coord. in units 2 pi/alat)
               b(1) = (  1.000000  0.577350 -0.000000 )  
               b(2) = (  0.000000  1.154701  0.000000 )  
               b(3) = (  0.000000 -0.000000  0.128000 )  


     PseudoPot. # 1 for W  read from file:
     /home/mainadmin/research/danu/pseudo/W.pbe-spn-kjpaw_psl.1.0.0.UPF
     MD5 check sum: 03c3df5b60893f488392c7401945500a
     Pseudo is Projector augmented-wave + core cor, Zval = 14.0
     Generated using &quot;atomic&quot; code by A. Dal Corso  v.6.2.2
     Shape of augmentation charge: PSQ
     Using radial grid of 1273 points,  6 beta functions with: 
                l(1) =   0
                l(2) =   0
                l(3) =   1
                l(4) =   1
                l(5) =   2
                l(6) =   2
     Q(r) pseudized with 0 coefficients 


     PseudoPot. # 2 for S  read from file:
     /home/mainadmin/research/danu/pseudo/S.pbe-n-kjpaw_psl.1.0.0.UPF
     MD5 check sum: fb45dfebcf3e72a4e1bd4a866ec2e262
     Pseudo is Projector augmented-wave + core cor, Zval =  6.0
     Generated using &quot;atomic&quot; code by A. Dal Corso  v.6.3
     Shape of augmentation charge: PSQ
     Using radial grid of 1151 points,  6 beta functions with: 
                l(1) =   0
                l(2) =   0
                l(3) =   1
                l(4) =   1
                l(5) =   2
                l(6) =   2
     Q(r) pseudized with 0 coefficients 


     PseudoPot. # 3 for Se read from file:
     /home/mainadmin/research/danu/pseudo/Se.pbe-dn-kjpaw_psl.1.0.0.UPF
     MD5 check sum: ac240dd2bae32a30e0bf3a38df9c8785
     Pseudo is Projector augmented-wave + core cor, Zval = 16.0
     Generated using &quot;atomic&quot; code by A. Dal Corso  v.6.3
     Shape of augmentation charge: PSQ
     Using radial grid of 1211 points,  6 beta functions with: 
                l(1) =   0
                l(2) =   0
                l(3) =   1
                l(4) =   1
                l(5) =   2
                l(6) =   2
     Q(r) pseudized with 0 coefficients 


     atomic species   valence    mass     pseudopotential
        W             14.00   183.84000     W ( 1.00)
        S              6.00    32.06500     S ( 1.00)
        Se            16.00    78.96000     Se( 1.00)

      6 Sym. Ops. (no inversion) found



   Cartesian axes

     site n.     atom                  positions (alat units)
         1           Se  tau(   1) = (   0.5000000   0.2886751   4.5312500  )
         2           W   tau(   2) = (  -0.0000000   0.5773503   3.9062500  )
         3           S   tau(   3) = (   0.5000000   0.2886751  -4.5312500  )

     number of k points=    61
                       cart. coord. in units 2pi/alat
        k(    1) = (   0.0000000   0.0000000   0.0000000), wk =   0.0034722
        k(    2) = (   0.0000000   0.0481125   0.0000000), wk =   0.0208333
        k(    3) = (   0.0000000   0.0962250   0.0000000), wk =   0.0208333
        k(    4) = (   0.0000000   0.1443376   0.0000000), wk =   0.0208333
        k(    5) = (   0.0000000   0.1924501   0.0000000), wk =   0.0208333
        k(    6) = (   0.0000000   0.2405626   0.0000000), wk =   0.0208333
        k(    7) = (   0.0000000   0.2886751   0.0000000), wk =   0.0208333
        k(    8) = (   0.0000000   0.3367877   0.0000000), wk =   0.0208333
        k(    9) = (   0.0000000   0.3849002   0.0000000), wk =   0.0208333
        k(   10) = (   0.0000000   0.4330127   0.0000000), wk =   0.0208333
        k(   11) = (   0.0000000   0.4811252   0.0000000), wk =   0.0208333
        k(   12) = (   0.0000000   0.5292377   0.0000000), wk =   0.0208333
        k(   13) = (   0.0000000  -0.5773503   0.0000000), wk =   0.0104167
        k(   14) = (   0.0416667   0.0721688   0.0000000), wk =   0.0208333
        k(   15) = (   0.0416667   0.1202813   0.0000000), wk =   0.0416667
        k(   16) = (   0.0416667   0.1683938   0.0000000), wk =   0.0416667
        k(   17) = (   0.0416667   0.2165064   0.0000000), wk =   0.0416667
        k(   18) = (   0.0416667   0.2646189   0.0000000), wk =   0.0416667
        k(   19) = (   0.0416667   0.3127314   0.0000000), wk =   0.0416667
        k(   20) = (   0.0416667   0.3608439   0.0000000), wk =   0.0416667
        k(   21) = (   0.0416667   0.4089564   0.0000000), wk =   0.0416667
        k(   22) = (   0.0416667   0.4570690   0.0000000), wk =   0.0416667
        k(   23) = (   0.0416667   0.5051815   0.0000000), wk =   0.0416667
        k(   24) = (   0.0416667   0.5532940   0.0000000), wk =   0.0416667
        k(   25) = (   0.0833333   0.1443376   0.0000000), wk =   0.0208333
        k(   26) = (   0.0833333   0.1924501   0.0000000), wk =   0.0416667
        k(   27) = (   0.0833333   0.2405626   0.0000000), wk =   0.0416667
        k(   28) = (   0.0833333   0.2886751   0.0000000), wk =   0.0416667
        k(   29) = (   0.0833333   0.3367877   0.0000000), wk =   0.0416667
        k(   30) = (   0.0833333   0.3849002   0.0000000), wk =   0.0416667
        k(   31) = (   0.0833333   0.4330127   0.0000000), wk =   0.0416667
        k(   32) = (   0.0833333   0.4811252   0.0000000), wk =   0.0416667
        k(   33) = (   0.0833333   0.5292377   0.0000000), wk =   0.0416667
        k(   34) = (   0.0833333   0.5773503   0.0000000), wk =   0.0208333
        k(   35) = (   0.1250000   0.2165064   0.0000000), wk =   0.0208333
        k(   36) = (   0.1250000   0.2646189   0.0000000), wk =   0.0416667
        k(   37) = (   0.1250000   0.3127314   0.0000000), wk =   0.0416667
        k(   38) = (   0.1250000   0.3608439   0.0000000), wk =   0.0416667
        k(   39) = (   0.1250000   0.4089564   0.0000000), wk =   0.0416667
        k(   40) = (   0.1250000   0.4570690   0.0000000), wk =   0.0416667
        k(   41) = (   0.1250000   0.5051815   0.0000000), wk =   0.0416667
        k(   42) = (   0.1250000   0.5532940   0.0000000), wk =   0.0416667
        k(   43) = (   0.1666667   0.2886751   0.0000000), wk =   0.0208333
        k(   44) = (   0.1666667   0.3367877   0.0000000), wk =   0.0416667
        k(   45) = (   0.1666667   0.3849002   0.0000000), wk =   0.0416667
        k(   46) = (   0.1666667   0.4330127   0.0000000), wk =   0.0416667
        k(   47) = (   0.1666667   0.4811252   0.0000000), wk =   0.0416667
        k(   48) = (   0.1666667   0.5292377   0.0000000), wk =   0.0416667
        k(   49) = (   0.1666667   0.5773503   0.0000000), wk =   0.0208333
        k(   50) = (   0.2083333   0.3608439   0.0000000), wk =   0.0208333
        k(   51) = (   0.2083333   0.4089564   0.0000000), wk =   0.0416667
        k(   52) = (   0.2083333   0.4570690   0.0000000), wk =   0.0416667
        k(   53) = (   0.2083333   0.5051815   0.0000000), wk =   0.0416667
        k(   54) = (   0.2083333   0.5532940   0.0000000), wk =   0.0416667
        k(   55) = (   0.2500000   0.4330127   0.0000000), wk =   0.0208333
        k(   56) = (   0.2500000   0.4811252   0.0000000), wk =   0.0416667
        k(   57) = (   0.2500000   0.5292377   0.0000000), wk =   0.0416667
        k(   58) = (   0.2500000   0.5773503   0.0000000), wk =   0.0208333
        k(   59) = (   0.2916667   0.5051815   0.0000000), wk =   0.0208333
        k(   60) = (   0.2916667   0.5532940   0.0000000), wk =   0.0416667
        k(   61) = (   0.3333333   0.5773503   0.0000000), wk =   0.0069444

     Dense  grid:    93827 G-vectors     FFT dimensions: (  30,  30, 240)

     Estimated max dynamical RAM per process >      48.49 MB

     Estimated total dynamical RAM >     581.89 MB

     Check: negative core charge=   -0.000001

     Initial potential from superposition of free atoms

     starting charge      35.9993, renormalised to      36.0000

     negative rho (up, down):  5.774E-04 0.000E+00
     Starting wfcs are   26 randomized atomic wfcs
     Checking if some PAW data can be deallocated... 

     total cpu time spent up to now is        2.0 secs

     Self-consistent Calculation

     iteration #  1     ecut=    60.00 Ry     beta= 0.50
     Davidson diagonalization with overlap
     ethr =  1.00E-02,  avg # of iterations =  2.0

     Threshold (ethr) on eigenvalues was too large:
     Diagonalizing with lowered threshold

     Davidson diagonalization with overlap
     ethr =  4.61E-04,  avg # of iterations =  2.1

     negative rho (up, down):  1.096E-03 0.000E+00

     total cpu time spent up to now is        6.4 secs

     total energy              =   -1228.30597397 Ry
     estimated scf accuracy    <       0.16845476 Ry

     iteration #  2     ecut=    60.00 Ry     beta= 0.50
     Davidson diagonalization with overlap
     ethr =  4.68E-04,  avg # of iterations =  8.3

     negative rho (up, down):  1.376E-03 0.000E+00

     total cpu time spent up to now is       10.0 secs

     total energy              =   -1228.07520509 Ry
     estimated scf accuracy    <       4.14386307 Ry

     iteration #  3     ecut=    60.00 Ry     beta= 0.50
     Davidson diagonalization with overlap
     ethr =  4.68E-04,  avg # of iterations =  7.7

     negative rho (up, down):  4.146E-03 0.000E+00

     total cpu time spent up to now is       13.4 secs

     total energy              =   -1228.37210018 Ry
     estimated scf accuracy    <       0.04898402 Ry

     iteration #  4     ecut=    60.00 Ry     beta= 0.50
     Davidson diagonalization with overlap
     ethr =  1.36E-04,  avg # of iterations =  4.7

     negative rho (up, down):  7.691E-03 0.000E+00

     total cpu time spent up to now is       16.2 secs

     total energy              =   -1228.37519284 Ry
     estimated scf accuracy    <       0.09946065 Ry

     iteration #  5     ecut=    60.00 Ry     beta= 0.50
     Davidson diagonalization with overlap
     ethr =  1.36E-04,  avg # of iterations =  3.6

     negative rho (up, down):  1.529E-02 0.000E+00

     total cpu time spent up to now is       18.7 secs

     total energy              =   -1228.38554043 Ry
     estimated scf accuracy    <       0.01709352 Ry

     iteration #  6     ecut=    60.00 Ry     beta= 0.50
     Davidson diagonalization with overlap
     ethr =  4.75E-05,  avg # of iterations =  3.4

     negative rho (up, down):  3.692E-03 0.000E+00

     total cpu time spent up to now is       21.1 secs

     total energy              =   -1228.36919497 Ry
     estimated scf accuracy    <       0.01779495 Ry

     iteration #  7     ecut=    60.00 Ry     beta= 0.50
     Davidson diagonalization with overlap
     ethr =  4.75E-05,  avg # of iterations =  4.9

     negative rho (up, down):  6.904E-03 0.000E+00

     total cpu time spent up to now is       24.0 secs

     total energy              =   -1228.38126248 Ry
     estimated scf accuracy    <       0.02730527 Ry

     iteration #  8     ecut=    60.00 Ry     beta= 0.50
     Davidson diagonalization with overlap
     ethr =  4.75E-05,  avg # of iterations =  2.0

     negative rho (up, down):  1.822E-03 0.000E+00

     total cpu time spent up to now is       26.3 secs

     total energy              =   -1228.37764306 Ry
     estimated scf accuracy    <       0.01991241 Ry

     iteration #  9     ecut=    60.00 Ry     beta= 0.50
     Davidson diagonalization with overlap
     ethr =  4.75E-05,  avg # of iterations =  2.0

     negative rho (up, down):  8.173E-04 0.000E+00

     total cpu time spent up to now is       28.7 secs

     total energy              =   -1228.37788286 Ry
     estimated scf accuracy    <       0.00912623 Ry

     iteration # 10     ecut=    60.00 Ry     beta= 0.50
     Davidson diagonalization with overlap
     ethr =  2.54E-05,  avg # of iterations =  3.9

     negative rho (up, down):  7.623E-04 0.000E+00

     total cpu time spent up to now is       31.2 secs

     total energy              =   -1228.37918104 Ry
     estimated scf accuracy    <       0.00062364 Ry

     iteration # 11     ecut=    60.00 Ry     beta= 0.50
     Davidson diagonalization with overlap
     ethr =  1.73E-06,  avg # of iterations =  5.0

     negative rho (up, down):  7.617E-04 0.000E+00

     total cpu time spent up to now is       34.0 secs

     total energy              =   -1228.37914155 Ry
     estimated scf accuracy    <       0.00084150 Ry

     iteration # 12     ecut=    60.00 Ry     beta= 0.50
     Davidson diagonalization with overlap
     ethr =  1.73E-06,  avg # of iterations =  3.8

     negative rho (up, down):  7.489E-04 0.000E+00

     total cpu time spent up to now is       36.8 secs

     total energy              =   -1228.37928055 Ry
     estimated scf accuracy    <       0.00008181 Ry

     iteration # 13     ecut=    60.00 Ry     beta= 0.50
     Davidson diagonalization with overlap
     ethr =  2.27E-07,  avg # of iterations =  2.3

     negative rho (up, down):  7.421E-04 0.000E+00

     total cpu time spent up to now is       39.0 secs

     total energy              =   -1228.37926571 Ry
     estimated scf accuracy    <       0.00007261 Ry

     iteration # 14     ecut=    60.00 Ry     beta= 0.50
     Davidson diagonalization with overlap
     ethr =  2.02E-07,  avg # of iterations =  4.0

     negative rho (up, down):  7.449E-04 0.000E+00

     total cpu time spent up to now is       41.6 secs

     total energy              =   -1228.37928093 Ry
     estimated scf accuracy    <       0.00000897 Ry

     iteration # 15     ecut=    60.00 Ry     beta= 0.50
     Davidson diagonalization with overlap
     ethr =  2.49E-08,  avg # of iterations =  3.2

     negative rho (up, down):  7.453E-04 0.000E+00

     total cpu time spent up to now is       44.2 secs

     total energy              =   -1228.37928028 Ry
     estimated scf accuracy    <       0.00001489 Ry

     iteration # 16     ecut=    60.00 Ry     beta= 0.50
     Davidson diagonalization with overlap
     ethr =  2.49E-08,  avg # of iterations =  1.8

     negative rho (up, down):  7.462E-04 0.000E+00

     total cpu time spent up to now is       46.3 secs

     total energy              =   -1228.37927856 Ry
     estimated scf accuracy    <       0.00000903 Ry

     iteration # 17     ecut=    60.00 Ry     beta= 0.50
     Davidson diagonalization with overlap
     ethr =  2.49E-08,  avg # of iterations =  4.0

     negative rho (up, down):  7.452E-04 0.000E+00

     total cpu time spent up to now is       48.8 secs

     total energy              =   -1228.37928011 Ry
     estimated scf accuracy    <       0.00000063 Ry

     iteration # 18     ecut=    60.00 Ry     beta= 0.50
     Davidson diagonalization with overlap
     ethr =  1.74E-09,  avg # of iterations =  4.7

     negative rho (up, down):  7.448E-04 0.000E+00

     total cpu time spent up to now is       51.3 secs

     total energy              =   -1228.37928022 Ry
     estimated scf accuracy    <       0.00000029 Ry

     iteration # 19     ecut=    60.00 Ry     beta= 0.50
     Davidson diagonalization with overlap
     ethr =  8.06E-10,  avg # of iterations =  2.7

     negative rho (up, down):  7.449E-04 0.000E+00

     total cpu time spent up to now is       53.5 secs

     total energy              =   -1228.37928006 Ry
     estimated scf accuracy    <       0.00000054 Ry

     iteration # 20     ecut=    60.00 Ry     beta= 0.50
     Davidson diagonalization with overlap
     ethr =  8.06E-10,  avg # of iterations =  5.3

     negative rho (up, down):  7.456E-04 0.000E+00

     total cpu time spent up to now is       56.4 secs

     total energy              =   -1228.37928022 Ry
     estimated scf accuracy    <       0.00000023 Ry

     iteration # 21     ecut=    60.00 Ry     beta= 0.50
     Davidson diagonalization with overlap
     ethr =  6.52E-10,  avg # of iterations =  3.4

     negative rho (up, down):  7.464E-04 0.000E+00

     total cpu time spent up to now is       58.9 secs

     total energy              =   -1228.37928017 Ry
     estimated scf accuracy    <       0.00000065 Ry

     iteration # 22     ecut=    60.00 Ry     beta= 0.50
     Davidson diagonalization with overlap
     ethr =  6.52E-10,  avg # of iterations =  2.0

     negative rho (up, down):  7.466E-04 0.000E+00

     total cpu time spent up to now is       61.0 secs

     total energy              =   -1228.37928015 Ry
     estimated scf accuracy    <       0.00000034 Ry

     iteration # 23     ecut=    60.00 Ry     beta= 0.50
     Davidson diagonalization with overlap
     ethr =  6.52E-10,  avg # of iterations =  2.7

     negative rho (up, down):  7.467E-04 0.000E+00

     total cpu time spent up to now is       63.2 secs

     total energy              =   -1228.37928015 Ry
     estimated scf accuracy    <       0.00000013 Ry

     iteration # 24     ecut=    60.00 Ry     beta= 0.50
     Davidson diagonalization with overlap
     ethr =  3.54E-10,  avg # of iterations =  3.4

     negative rho (up, down):  7.467E-04 0.000E+00

     total cpu time spent up to now is       65.5 secs

     total energy              =   -1228.37928016 Ry
     estimated scf accuracy    <       0.00000002 Ry

     iteration # 25     ecut=    60.00 Ry     beta= 0.50
     Davidson diagonalization with overlap
     ethr =  6.32E-11,  avg # of iterations =  5.0

     negative rho (up, down):  7.474E-04 0.000E+00

     total cpu time spent up to now is       68.4 secs

     End of self-consistent calculation

          k = 0.0000 0.0000 0.0000 ( 11811 PWs)   bands (ev):

   -75.2385 -48.4207 -48.4207 -48.4173 -48.4158 -48.4158 -39.4091 -39.1506
   -39.1506 -14.9932 -13.8032  -6.8569  -3.7196  -2.1971  -1.8503  -1.8503
    -0.7805  -0.7805

          k = 0.0000 0.0481 0.0000 ( 11811 PWs)   bands (ev):

   -75.2382 -48.4207 -48.4206 -48.4172 -48.4159 -48.4158 -39.4084 -39.1552
   -39.1517 -14.9683 -13.7840  -6.8178  -3.7252  -2.1813  -1.9292  -1.8220
    -0.8432  -0.8264

          k = 0.0000 0.0962 0.0000 ( 11801 PWs)   bands (ev):

   -75.2376 -48.4207 -48.4203 -48.4170 -48.4160 -48.4159 -39.4064 -39.1687
   -39.1550 -14.8945 -13.7269  -6.7024  -3.7427  -2.1657  -2.1276  -1.7395
    -1.0376  -0.9538

          k = 0.0000 0.1443 0.0000 ( 11801 PWs)   bands (ev):

   -75.2365 -48.4208 -48.4199 -48.4168 -48.4161 -48.4159 -39.4031 -39.1901
   -39.1602 -14.7737 -13.6335  -6.5165  -3.7748  -2.5094  -2.0743  -1.6103
    -1.3672  -1.1388

          k = 0.0000 0.1925 0.0000 ( 11789 PWs)   bands (ev):

   -75.2350 -48.4209 -48.4193 -48.4165 -48.4162 -48.4158 -39.3988 -39.2180
   -39.1669 -14.6095 -13.5067  -6.2707  -3.8282  -2.9522  -2.0273  -1.8007
    -1.4495  -1.3541

          k = 0.0000 0.2406 0.0000 ( 11797 PWs)   bands (ev):

   -75.2334 -48.4209 -48.4187 -48.4167 -48.4159 -48.4158 -39.3938 -39.2502
   -39.1747 -14.4075 -13.3509  -5.9829  -3.9244  -3.4468  -2.3074  -1.9970
    -1.5823  -1.2747

          k = 0.0000 0.2887 0.0000 ( 11777 PWs)   bands (ev):

   -75.2316 -48.4210 -48.4181 -48.4169 -48.4157 -48.4154 -39.3885 -39.2846
   -39.1831 -14.1753 -13.1720  -5.6842  -4.1601  -3.8852  -2.7587  -2.0500
    -1.8016  -1.1198

          k = 0.0000 0.3368 0.0000 ( 11757 PWs)   bands (ev):

   -75.2298 -48.4212 -48.4177 -48.4172 -48.4154 -48.4148 -39.3831 -39.3188
   -39.1915 -13.9237 -12.9787  -5.4428  -4.6025  -4.1662  -3.1007  -2.1308
    -2.0023  -1.0091

          k = 0.0000 0.3849 0.0000 ( 11771 PWs)   bands (ev):

   -75.2282 -48.4214 -48.4174 -48.4174 -48.4150 -48.4143 -39.3782 -39.3505
   -39.1993 -13.6676 -12.7823  -5.4794  -4.8974  -4.4189  -3.3043  -2.1827
    -2.1760  -0.9524

          k = 0.0000 0.4330 0.0000 ( 11761 PWs)   bands (ev):

   -75.2267 -48.4215 -48.4177 -48.4173 -48.4146 -48.4139 -39.3779 -39.3735
   -39.2060 -13.4268 -12.5974  -5.8459  -5.0478  -4.5149  -3.4115  -2.3165
    -2.1666  -0.9380

          k = 0.0000 0.4811 0.0000 ( 11733 PWs)   bands (ev):

   -75.2256 -48.4216 -48.4178 -48.4172 -48.4142 -48.4135 -39.3984 -39.3705
   -39.2112 -13.2258 -12.4425  -6.2094  -5.2660  -4.4773  -3.4672  -2.4196
    -2.0906  -0.9454

          k = 0.0000 0.5292 0.0000 ( 11700 PWs)   bands (ev):

   -75.2249 -48.4216 -48.4179 -48.4172 -48.4139 -48.4132 -39.4113 -39.3684
   -39.2144 -13.0909 -12.3377  -6.4561  -5.4327  -4.4425  -3.4942  -2.4824
    -2.0053  -0.9569

          k = 0.0000-0.5774 0.0000 ( 11704 PWs)   bands (ev):

   -75.2247 -48.4217 -48.4180 -48.4171 -48.4138 -48.4131 -39.4157 -39.3677
   -39.2155 -13.0432 -12.3004  -6.5430  -5.4928  -4.4316  -3.5023  -2.5036
    -1.9684  -0.9618

          k = 0.0417 0.0722 0.0000 ( 11799 PWs)   bands (ev):

   -75.2378 -48.4207 -48.4204 -48.4171 -48.4159 -48.4158 -39.4070 -39.1642
   -39.1540 -14.9190 -13.7459  -6.7405  -3.7367  -2.1531  -2.0795  -1.7672
    -0.9773  -0.9076

          k = 0.0417 0.1203 0.0000 ( 11788 PWs)   bands (ev):

   -75.2369 -48.4207 -48.4201 -48.4169 -48.4160 -48.4159 -39.4044 -39.1815
   -39.1583 -14.8216 -13.6706  -6.5897  -3.7608  -2.3706  -2.0955  -1.6639
    -1.2490  -1.0550

          k = 0.0417 0.1684 0.0000 ( 11804 PWs)   bands (ev):

   -75.2356 -48.4208 -48.4196 -48.4166 -48.4162 -48.4158 -39.4006 -39.2059
   -39.1646 -14.6791 -13.5605  -6.3731  -3.8009  -2.7633  -2.0387  -1.6413
    -1.5234  -1.2499

          k = 0.0417 0.2165 0.0000 ( 11805 PWs)   bands (ev):

   -75.2341 -48.4209 -48.4190 -48.4166 -48.4161 -48.4158 -39.3960 -39.2356
   -39.1721 -14.4959 -13.4190  -6.1043  -3.8679  -3.2295  -2.1290  -1.9898
    -1.4711  -1.3624

          k = 0.0417 0.2646 0.0000 ( 11791 PWs)   bands (ev):

   -75.2324 -48.4210 -48.4185 -48.4168 -48.4159 -48.4155 -39.3908 -39.2686
   -39.1806 -14.2785 -13.2514  -5.8062  -4.0067  -3.7095  -2.5986  -2.0256
    -1.6958  -1.2072

          k = 0.0417 0.3127 0.0000 ( 11777 PWs)   bands (ev):

   -75.2306 -48.4211 -48.4179 -48.4170 -48.4157 -48.4150 -39.3855 -39.3025
   -39.1893 -14.0360 -13.0649  -5.5216  -4.3762  -4.0343  -2.9999  -2.1078
    -1.9109  -1.0835

          k = 0.0417 0.3608 0.0000 ( 11759 PWs)   bands (ev):

   -75.2289 -48.4212 -48.4175 -48.4173 -48.4153 -48.4145 -39.3803 -39.3351
   -39.1978 -13.7813 -12.8692  -5.3764  -4.7883  -4.2953  -3.2606  -2.1963
    -2.1007  -1.0137

          k = 0.0417 0.4090 0.0000 ( 11762 PWs)   bands (ev):

   -75.2273 -48.4213 -48.4176 -48.4173 -48.4149 -48.4140 -39.3757 -39.3642
   -39.2053 -13.5314 -12.6774  -5.6279  -4.9448  -4.4905  -3.3956  -2.2966
    -2.1976  -0.9944

          k = 0.0417 0.4571 0.0000 ( 11728 PWs)   bands (ev):

   -75.2261 -48.4214 -48.4177 -48.4172 -48.4144 -48.4136 -39.3880 -39.3718
   -39.2115 -13.3085 -12.5060  -6.0178  -5.1405  -4.4901  -3.4600  -2.4225
    -2.1639  -1.0034

          k = 0.0417 0.5052 0.0000 ( 11716 PWs)   bands (ev):

   -75.2252 -48.4215 -48.4179 -48.4172 -48.4141 -48.4133 -39.4046 -39.3691
   -39.2158 -13.1386 -12.3743  -6.3283  -5.3451  -4.4436  -3.4894  -2.5147
    -2.0849  -1.0187

          k = 0.0417 0.5533 0.0000 ( 11680 PWs)   bands (ev):

   -75.2247 -48.4215 -48.4179 -48.4172 -48.4138 -48.4131 -39.4132 -39.3677
   -39.2181 -13.0459 -12.3020  -6.4973  -5.4621  -4.4199  -3.5005  -2.5626
    -2.0236  -1.0282

          k = 0.0833 0.1443 0.0000 ( 11799 PWs)   bands (ev):

   -75.2358 -48.4208 -48.4197 -48.4166 -48.4162 -48.4158 -39.4012 -39.2015
   -39.1640 -14.7025 -13.5786  -6.4076  -3.7912  -2.6951  -2.0441  -1.5973
    -1.5534  -1.2018

          k = 0.0833 0.1925 0.0000 ( 11799 PWs)   bands (ev):

   -75.2345 -48.4208 -48.4193 -48.4164 -48.4163 -48.4158 -39.3971 -39.2272
   -39.1716 -14.5408 -13.4536  -6.1660  -3.8371  -3.1048  -2.0512  -1.9932
    -1.4268  -1.3894

          k = 0.0833 0.2406 0.0000 ( 11778 PWs)   bands (ev):

   -75.2329 -48.4208 -48.4187 -48.4167 -48.4161 -48.4155 -39.3923 -39.2570
   -39.1805 -14.3419 -13.3001  -5.8811  -3.9163  -3.5629  -2.5219  -2.0174
    -1.6042  -1.2957

          k = 0.0833 0.2887 0.0000 ( 11766 PWs)   bands (ev):

   -75.2311 -48.4208 -48.4182 -48.4169 -48.4159 -48.4150 -39.3871 -39.2888
   -39.1900 -14.1135 -13.1242  -5.5817  -4.1658  -3.9264  -2.9676  -2.1021
    -1.8270  -1.1828

          k = 0.0833 0.3368 0.0000 ( 11775 PWs)   bands (ev):

   -75.2294 -48.4209 -48.4178 -48.4172 -48.4157 -48.4145 -39.3819 -39.3205
   -39.1995 -13.8665 -12.9342  -5.3340  -4.6146  -4.1522  -3.2884  -2.2246
    -2.0406  -1.1183

          k = 0.0833 0.3849 0.0000 ( 11771 PWs)   bands (ev):

   -75.2278 -48.4211 -48.4176 -48.4174 -48.4154 -48.4140 -39.3771 -39.3498
   -39.2084 -13.6156 -12.7413  -5.3914  -4.8562  -4.4033  -3.4472  -2.3458
    -2.2136  -1.1104

          k = 0.0833 0.4330 0.0000 ( 11746 PWs)   bands (ev):

   -75.2264 -48.4211 -48.4176 -48.4174 -48.4149 -48.4136 -39.3753 -39.3725
   -39.2160 -13.3803 -12.5602  -5.7702  -4.9809  -4.4868  -3.5035  -2.4849
    -2.2788  -1.1310

          k = 0.0833 0.4811 0.0000 ( 11722 PWs)   bands (ev):

   -75.2254 -48.4212 -48.4178 -48.4173 -48.4144 -48.4133 -39.3941 -39.3697
   -39.2218 -13.1845 -12.4088  -6.1256  -5.2044  -4.4307  -3.5133  -2.6205
    -2.2535  -1.1503

          k = 0.0833 0.5292 0.0000 ( 11686 PWs)   bands (ev):

   -75.2247 -48.4212 -48.4178 -48.4172 -48.4141 -48.4132 -39.4060 -39.3677
   -39.2255 -13.0533 -12.3065  -6.3643  -5.3721  -4.3890  -3.5062  -2.7151
    -2.2054  -1.1570

          k = 0.0833 0.5774 0.0000 ( 11664 PWs)   bands (ev):

   -75.2245 -48.4212 -48.4178 -48.4172 -48.4139 -48.4131 -39.4101 -39.3671
   -39.2267 -13.0070 -12.2702  -6.4482  -5.4320  -4.3764  -3.5011  -2.7492
    -2.1836  -1.1570

          k = 0.1250 0.2165 0.0000 ( 11775 PWs)   bands (ev):

   -75.2330 -48.4207 -48.4189 -48.4166 -48.4162 -48.4154 -39.3928 -39.2527
   -39.1808 -14.3633 -13.3165  -5.9064  -3.8856  -3.5059  -2.5018  -2.0156
    -1.5665  -1.3326

          k = 0.1250 0.2646 0.0000 ( 11787 PWs)   bands (ev):

   -75.2314 -48.4207 -48.4185 -48.4168 -48.4161 -48.4150 -39.3879 -39.2807
   -39.1914 -14.1530 -13.1543  -5.6132  -4.0247  -3.8738  -2.9727  -2.1034
    -1.7723  -1.2489

          k = 0.1250 0.3127 0.0000 ( 11788 PWs)   bands (ev):

   -75.2298 -48.4207 -48.4181 -48.4170 -48.4160 -48.4145 -39.3830 -39.3094
   -39.2025 -13.9192 -12.9742  -5.3224  -4.4476  -4.0243  -3.3696  -2.2555
    -1.9928  -1.2006

          k = 0.1250 0.3608 0.0000 ( 11776 PWs)   bands (ev):

   -75.2282 -48.4207 -48.4178 -48.4172 -48.4158 -48.4141 -39.3782 -39.3368
   -39.2134 -13.6746 -12.7858  -5.1809  -4.7935  -4.2572  -3.5800  -2.4251
    -2.2086  -1.2078

          k = 0.1250 0.4090 0.0000 ( 11749 PWs)   bands (ev):

   -75.2267 -48.4207 -48.4176 -48.4174 -48.4154 -48.4137 -39.3739 -39.3612
   -39.2231 -13.4358 -12.6017  -5.4937  -4.8191  -4.4644  -3.6290  -2.5837
    -2.3860  -1.2396

          k = 0.1250 0.4571 0.0000 ( 11712 PWs)   bands (ev):

   -75.2255 -48.4208 -48.4176 -48.4174 -48.4149 -48.4134 -39.3812 -39.3702
   -39.2311 -13.2240 -12.4378  -5.8694  -5.0206  -4.4201  -3.6082  -2.7445
    -2.4803  -1.2557

          k = 0.1250 0.5052 0.0000 ( 11701 PWs)   bands (ev):

   -75.2247 -48.4208 -48.4177 -48.4174 -48.4145 -48.4133 -39.3951 -39.3677
   -39.2367 -13.0634 -12.3126  -6.1575  -5.2300  -4.3511  -3.5587  -2.8962
    -2.5038  -1.2453

          k = 0.1250 0.5533 0.0000 ( 11683 PWs)   bands (ev):

   -75.2243 -48.4208 -48.4177 -48.4174 -48.4142 -48.4132 -39.4023 -39.3665
   -39.2397 -12.9761 -12.2440  -6.3130  -5.3460  -4.3206  -3.5130  -2.9957
    -2.5030  -1.2275

          k = 0.1667 0.2887 0.0000 ( 11767 PWs)   bands (ev):

   -75.2299 -48.4205 -48.4183 -48.4169 -48.4161 -48.4145 -39.3833 -39.3051
   -39.2040 -13.9371 -12.9878  -5.3205  -4.3766  -3.9656  -3.4210  -2.2703
    -1.9735  -1.2291

          k = 0.1667 0.3368 0.0000 ( 11759 PWs)   bands (ev):

   -75.2283 -48.4204 -48.4180 -48.4171 -48.4160 -48.4140 -39.3787 -39.3288
   -39.2172 -13.7049 -12.8086  -5.0563  -4.7551  -4.0906  -3.7506  -2.4874
    -2.1968  -1.2533

          k = 0.1667 0.3849 0.0000 ( 11741 PWs)   bands (ev):

   -75.2269 -48.4203 -48.4178 -48.4172 -48.4158 -48.4136 -39.3744 -39.3503
   -39.2300 -13.4707 -12.6276  -5.2374  -4.7396  -4.3774  -3.8195  -2.7072
    -2.4255  -1.2940

          k = 0.1667 0.4330 0.0000 ( 11722 PWs)   bands (ev):

   -75.2257 -48.4203 -48.4177 -48.4174 -48.4155 -48.4134 -39.3710 -39.3682
   -39.2411 -13.2530 -12.4587  -5.6009  -4.8136  -4.4331  -3.7828  -2.8976
    -2.6363  -1.3055

          k = 0.1667 0.4811 0.0000 ( 11711 PWs)   bands (ev):

   -75.2247 -48.4203 -48.4176 -48.4174 -48.4150 -48.4133 -39.3824 -39.3677
   -39.2498 -13.0734 -12.3185  -5.9053  -5.0523  -4.3266  -3.7043  -3.0610
    -2.7969  -1.2753

          k = 0.1667 0.5292 0.0000 ( 11688 PWs)   bands (ev):

   -75.2241 -48.4203 -48.4176 -48.4175 -48.4146 -48.4133 -39.3910 -39.3660
   -39.2553 -12.9540 -12.2245  -6.1071  -5.2158  -4.2695  -3.6019  -3.2136
    -2.8831  -1.2288

          k = 0.1667 0.5774 0.0000 ( 11682 PWs)   bands (ev):

   -75.2239 -48.4203 -48.4176 -48.4175 -48.4144 -48.4133 -39.3939 -39.3653
   -39.2572 -12.9120 -12.1912  -6.1780  -5.2727  -4.2539  -3.5320  -3.3021
    -2.9076  -1.2066

          k = 0.2083 0.3608 0.0000 ( 11741 PWs)   bands (ev):

   -75.2270 -48.4202 -48.4179 -48.4171 -48.4160 -48.4136 -39.3746 -39.3460
   -39.2329 -13.4826 -12.6364  -5.1118  -4.7498  -4.2770  -3.9517  -2.7646
    -2.4304  -1.3077

          k = 0.2083 0.4090 0.0000 ( 11709 PWs)   bands (ev):

   -75.2257 -48.4200 -48.4178 -48.4172 -48.4158 -48.4134 -39.3709 -39.3602
   -39.2481 -13.2683 -12.4697  -5.4045  -4.6348  -4.4742  -3.9554  -3.0367
    -2.6756  -1.3192

          k = 0.2083 0.4571 0.0000 ( 11719 PWs)   bands (ev):

   -75.2247 -48.4199 -48.4178 -48.4172 -48.4155 -48.4133 -39.3713 -39.3676
   -39.2613 -13.0806 -12.3228  -5.6673  -4.8795  -4.3316  -3.8994  -3.2574
    -2.9131  -1.2743

          k = 0.2083 0.5052 0.0000 ( 11700 PWs)   bands (ev):

   -75.2240 -48.4198 -48.4178 -48.4173 -48.4151 -48.4133 -39.3783 -39.3656
   -39.2710 -12.9400 -12.2117  -5.8669  -5.0717  -4.2432  -3.8068  -3.4038
    -3.1217  -1.1981

          k = 0.2083 0.5533 0.0000 ( 11681 PWs)   bands (ev):

   -75.2236 -48.4198 -48.4177 -48.4173 -48.4148 -48.4134 -39.3819 -39.3645
   -39.2763 -12.8643 -12.1515  -5.9756  -5.1724  -4.2140  -3.7047  -3.4889
    -3.2605  -1.1399

          k = 0.2500 0.4330 0.0000 ( 11731 PWs)   bands (ev):

   -75.2247 -48.4197 -48.4179 -48.4171 -48.4158 -48.4133 -39.3681 -39.3660
   -39.2661 -13.0833 -12.3243  -5.5588  -4.8001  -4.3410  -4.0017  -3.3514
    -2.9303  -1.2698

          k = 0.2500 0.4811 0.0000 ( 11707 PWs)   bands (ev):

   -75.2239 -48.4195 -48.4179 -48.4170 -48.4155 -48.4134 -39.3690 -39.3653
   -39.2820 -12.9333 -12.2054  -5.6772  -4.9778  -4.2304  -3.9982  -3.5791
    -3.1664  -1.1703

          k = 0.2500 0.5292 0.0000 ( 11689 PWs)   bands (ev):

   -75.2235 -48.4193 -48.4180 -48.4169 -48.4153 -48.4135 -39.3691 -39.3640
   -39.2935 -12.8350 -12.1269  -5.7519  -5.0968  -4.2220  -3.9384  -3.6808
    -3.3596  -1.0717

          k = 0.2500 0.5774 0.0000 ( 11670 PWs)   bands (ev):

   -75.2233 -48.4193 -48.4180 -48.4169 -48.4151 -48.4136 -39.3688 -39.3635
   -39.2977 -12.8008 -12.0993  -5.7775  -5.1380  -4.2404  -3.8935  -3.6972
    -3.4488  -1.0303

          k = 0.2917 0.5052 0.0000 ( 11704 PWs)   bands (ev):

   -75.2234 -48.4192 -48.4181 -48.4167 -48.4156 -48.4135 -39.3639 -39.3625
   -39.3015 -12.8252 -12.1186  -5.6336  -5.0868  -4.2224  -4.0568  -3.7628
    -3.3660  -1.0425

          k = 0.2917 0.5533 0.0000 ( 11682 PWs)   bands (ev):

   -75.2231 -48.4189 -48.4182 -48.4165 -48.4156 -48.4137 -39.3629 -39.3553
   -39.3156 -12.7679 -12.0722  -5.5701  -5.1779  -4.3235  -3.9948  -3.8461
    -3.4797  -0.9537

          k = 0.3333 0.5774 0.0000 ( 11694 PWs)   bands (ev):

   -75.2230 -48.4187 -48.4183 -48.4161 -48.4159 -48.4138 -39.3626 -39.3412
   -39.3326 -12.7448 -12.0533  -5.3722  -5.3367  -4.3858  -3.9886  -3.9146
    -3.5118  -0.9047

     highest occupied level (ev):    -0.7805

!    total energy              =   -1228.37928016 Ry
     total all-electron energy =    -37944.469711 Ry
     estimated scf accuracy    <          5.6E-09 Ry

     The total energy is the sum of the following terms:
     one-electron contribution =   -2749.50602137 Ry
     hartree contribution      =    1372.31425223 Ry
     xc contribution           =     -73.23288811 Ry
     ewald contribution        =    1014.62638954 Ry
     one-center paw contrib.   =    -792.58101245 Ry

     convergence has been achieved in  25 iterations

     Writing all to output data dir ./work/WSSe.save/

     init_run     :      1.67s CPU      1.77s WALL (       1 calls)
     electrons    :     62.26s CPU     66.40s WALL (       1 calls)

     Called by init_run:
     wfcinit      :      0.96s CPU      1.04s WALL (       1 calls)
     potinit      :      0.16s CPU      0.17s WALL (       1 calls)
     hinit0       :      0.44s CPU      0.44s WALL (       1 calls)

     Called by electrons:
     c_bands      :     50.51s CPU     53.99s WALL (      26 calls)
     sum_band     :      8.43s CPU      9.02s WALL (      26 calls)
     v_of_rho     :      0.16s CPU      0.16s WALL (      26 calls)
     newd         :      1.86s CPU      1.88s WALL (      26 calls)
     PAW_pot      :      1.31s CPU      1.38s WALL (      26 calls)
     mix_rho      :      0.09s CPU      0.09s WALL (      26 calls)

     Called by c_bands:
     init_us_2    :      0.91s CPU      0.97s WALL (    3233 calls)
     init_us_2:cp :      0.91s CPU      0.97s WALL (    3233 calls)
     cegterg      :     47.98s CPU     51.37s WALL (    1586 calls)

     Called by *egterg:
     cdiaghg      :      1.90s CPU      1.96s WALL (    7499 calls)
     h_psi        :     31.22s CPU     34.21s WALL (    7621 calls)
     s_psi        :      4.11s CPU      4.32s WALL (    7621 calls)
     g_psi        :      0.17s CPU      0.17s WALL (    5974 calls)

     Called by h_psi:
     h_psi:calbec :      4.21s CPU      4.69s WALL (    7621 calls)
     vloc_psi     :     22.90s CPU     25.07s WALL (    7621 calls)
     add_vuspsi   :      4.02s CPU      4.36s WALL (    7621 calls)

     General routines
     calbec       :      5.70s CPU      6.33s WALL (    9207 calls)
     fft          :      0.34s CPU      0.34s WALL (     287 calls)
     ffts         :      0.01s CPU      0.01s WALL (      26 calls)
     fftw         :     25.13s CPU     27.50s WALL (  178896 calls)

     Parallel routines

     PWSCF        :   1m 4.29s CPU   1m 8.64s WALL


   This run was terminated on:  11:19:52  30Jan2023            

=------------------------------------------------------------------------------=
   JOB DONE.
=------------------------------------------------------------------------------=
