
     Program PWSCF v.7.1 starts on 30Jan2023 at 11: 8:49 

     This program is part of the open-source Quantum ESPRESSO suite
     for quantum simulation of materials; please cite
         "P. Giannozzi et al., J. Phys.:Condens. Matter 21 395502 (2009);
         "P. Giannozzi et al., J. Phys.:Condens. Matter 29 465901 (2017);
         "P. Giannozzi et al., J. Chem. Phys. 152 154105 (2020);
          URL http://www.quantum-espresso.org", 
     in publications or presentations arising from this work. More details at
     http://www.quantum-espresso.org/quote

     Parallel version (MPI), running on    12 processors

     MPI processes distributed on     1 nodes
     122220 MiB available memory on the printing compute node when the environment starts

     Waiting for input...
     Reading input from standard input

     Current dimensions of program PWSCF are:
     Max number of different atomic species (ntypx) = 10
     Max number of k-points (npk) =  40000
     Max angular momentum in pseudopotentials (lmaxx) =  4
     file W.pbe-spn-kjpaw_psl.1.0.0.UPF: wavefunction(s)  6S 5P 5D renormalized
     file S.pbe-n-kjpaw_psl.1.0.0.UPF: wavefunction(s)  3S 3P renormalized
     file Se.pbe-dn-kjpaw_psl.1.0.0.UPF: wavefunction(s)  4S 4P 3D renormalized
     Message from routine setup:
     using ibrav=0 with symmetry is DISCOURAGED, use correct ibrav instead

     R & G space division:  proc/nbgrp/npool/nimage =      12
     Subspace diagonalization in iterative solution of the eigenvalue problem:
     a serial algorithm will be used


     Parallelization info
     --------------------
     sticks:   dense  smooth     PW     G-vecs:    dense   smooth      PW
     Min          49      49     15                 7805     7805    1255
     Max          50      50     16                 7840     7840    1268
     Sum         595     595    187                93827    93827   15121

     Using Slab Decomposition



     bravais-lattice index     =            0
     lattice parameter (alat)  =       6.0471  a.u.
     unit-cell volume          =    1496.1227 (a.u.)^3
     number of atoms/cell      =            3
     number of atomic types    =            3
     number of electrons       =        36.00
     number of Kohn-Sham states=           18
     kinetic-energy cutoff     =      60.0000  Ry
     charge density cutoff     =     240.0000  Ry
     scf convergence threshold =      1.0E-08
     mixing beta               =       0.5000
     number of iterations used =            8  plain     mixing
     Exchange-correlation= SLA  PW   PBX  PBC
                           (   1   4   3   4   0   0   0)

     celldm(1)=   6.047124  celldm(2)=   0.000000  celldm(3)=   0.000000
     celldm(4)=   0.000000  celldm(5)=   0.000000  celldm(6)=   0.000000

     crystal axes: (cart. coord. in units of alat)
               a(1) = (   1.000000   0.000000   0.000000 )  
               a(2) = (  -0.500000   0.866025   0.000000 )  
               a(3) = (   0.000000   0.000000   7.812500 )  

     reciprocal axes: (cart. coord. in units 2 pi/alat)
               b(1) = (  1.000000  0.577350 -0.000000 )  
               b(2) = (  0.000000  1.154701  0.000000 )  
               b(3) = (  0.000000 -0.000000  0.128000 )  


     PseudoPot. # 1 for W  read from file:
     /home/mainadmin/research/danu/pseudo/W.pbe-spn-kjpaw_psl.1.0.0.UPF
     MD5 check sum: 03c3df5b60893f488392c7401945500a
     Pseudo is Projector augmented-wave + core cor, Zval = 14.0
     Generated using &quot;atomic&quot; code by A. Dal Corso  v.6.2.2
     Shape of augmentation charge: PSQ
     Using radial grid of 1273 points,  6 beta functions with: 
                l(1) =   0
                l(2) =   0
                l(3) =   1
                l(4) =   1
                l(5) =   2
                l(6) =   2
     Q(r) pseudized with 0 coefficients 


     PseudoPot. # 2 for S  read from file:
     /home/mainadmin/research/danu/pseudo/S.pbe-n-kjpaw_psl.1.0.0.UPF
     MD5 check sum: fb45dfebcf3e72a4e1bd4a866ec2e262
     Pseudo is Projector augmented-wave + core cor, Zval =  6.0
     Generated using &quot;atomic&quot; code by A. Dal Corso  v.6.3
     Shape of augmentation charge: PSQ
     Using radial grid of 1151 points,  6 beta functions with: 
                l(1) =   0
                l(2) =   0
                l(3) =   1
                l(4) =   1
                l(5) =   2
                l(6) =   2
     Q(r) pseudized with 0 coefficients 


     PseudoPot. # 3 for Se read from file:
     /home/mainadmin/research/danu/pseudo/Se.pbe-dn-kjpaw_psl.1.0.0.UPF
     MD5 check sum: ac240dd2bae32a30e0bf3a38df9c8785
     Pseudo is Projector augmented-wave + core cor, Zval = 16.0
     Generated using &quot;atomic&quot; code by A. Dal Corso  v.6.3
     Shape of augmentation charge: PSQ
     Using radial grid of 1211 points,  6 beta functions with: 
                l(1) =   0
                l(2) =   0
                l(3) =   1
                l(4) =   1
                l(5) =   2
                l(6) =   2
     Q(r) pseudized with 0 coefficients 


     atomic species   valence    mass     pseudopotential
        W             14.00   183.84000     W ( 1.00)
        S              6.00    32.06500     S ( 1.00)
        Se            16.00    78.96000     Se( 1.00)

      6 Sym. Ops. (no inversion) found



   Cartesian axes

     site n.     atom                  positions (alat units)
         1           Se  tau(   1) = (   0.5000000   0.2886751   4.5312500  )
         2           W   tau(   2) = (  -0.0000000   0.5773503   3.9062500  )
         3           S   tau(   3) = (   0.5000000   0.2886751  -4.5312500  )

     number of k points=    19
                       cart. coord. in units 2pi/alat
        k(    1) = (   0.0000000   0.0000000   0.0000000), wk =   0.0138889
        k(    2) = (   0.0000000   0.0962250   0.0000000), wk =   0.0833333
        k(    3) = (   0.0000000   0.1924501   0.0000000), wk =   0.0833333
        k(    4) = (   0.0000000   0.2886751   0.0000000), wk =   0.0833333
        k(    5) = (   0.0000000   0.3849002   0.0000000), wk =   0.0833333
        k(    6) = (   0.0000000   0.4811252   0.0000000), wk =   0.0833333
        k(    7) = (   0.0000000  -0.5773503   0.0000000), wk =   0.0416667
        k(    8) = (   0.0833333   0.1443376   0.0000000), wk =   0.0833333
        k(    9) = (   0.0833333   0.2405626   0.0000000), wk =   0.1666667
        k(   10) = (   0.0833333   0.3367877   0.0000000), wk =   0.1666667
        k(   11) = (   0.0833333   0.4330127   0.0000000), wk =   0.1666667
        k(   12) = (   0.0833333   0.5292377   0.0000000), wk =   0.1666667
        k(   13) = (   0.1666667   0.2886751   0.0000000), wk =   0.0833333
        k(   14) = (   0.1666667   0.3849002   0.0000000), wk =   0.1666667
        k(   15) = (   0.1666667   0.4811252   0.0000000), wk =   0.1666667
        k(   16) = (   0.1666667   0.5773503   0.0000000), wk =   0.0833333
        k(   17) = (   0.2500000   0.4330127   0.0000000), wk =   0.0833333
        k(   18) = (   0.2500000   0.5292377   0.0000000), wk =   0.1666667
        k(   19) = (   0.3333333   0.5773503   0.0000000), wk =   0.0277778

     Dense  grid:    93827 G-vectors     FFT dimensions: (  30,  30, 240)

     Estimated max dynamical RAM per process >      37.21 MB

     Estimated total dynamical RAM >     446.51 MB

     Check: negative core charge=   -0.000001

     Initial potential from superposition of free atoms

     starting charge      35.9993, renormalised to      36.0000

     negative rho (up, down):  5.774E-04 0.000E+00
     Starting wfcs are   26 randomized atomic wfcs
     Checking if some PAW data can be deallocated... 

     total cpu time spent up to now is        1.3 secs

     Self-consistent Calculation

     iteration #  1     ecut=    60.00 Ry     beta= 0.50
     Davidson diagonalization with overlap
     ethr =  1.00E-02,  avg # of iterations =  2.0

     Threshold (ethr) on eigenvalues was too large:
     Diagonalizing with lowered threshold

     Davidson diagonalization with overlap
     ethr =  4.60E-04,  avg # of iterations =  2.1

     negative rho (up, down):  1.106E-03 0.000E+00

     total cpu time spent up to now is        2.9 secs

     total energy              =   -1228.30601751 Ry
     estimated scf accuracy    <       0.16835490 Ry

     iteration #  2     ecut=    60.00 Ry     beta= 0.50
     Davidson diagonalization with overlap
     ethr =  4.68E-04,  avg # of iterations =  8.1

     negative rho (up, down):  1.404E-03 0.000E+00

     total cpu time spent up to now is        4.1 secs

     total energy              =   -1228.07556057 Ry
     estimated scf accuracy    <       4.13876485 Ry

     iteration #  3     ecut=    60.00 Ry     beta= 0.50
     Davidson diagonalization with overlap
     ethr =  4.68E-04,  avg # of iterations =  7.6

     negative rho (up, down):  4.310E-03 0.000E+00

     total cpu time spent up to now is        5.3 secs

     total energy              =   -1228.37224972 Ry
     estimated scf accuracy    <       0.04421672 Ry

     iteration #  4     ecut=    60.00 Ry     beta= 0.50
     Davidson diagonalization with overlap
     ethr =  1.23E-04,  avg # of iterations =  4.8

     negative rho (up, down):  8.003E-03 0.000E+00

     total cpu time spent up to now is        6.4 secs

     total energy              =   -1228.37533032 Ry
     estimated scf accuracy    <       0.10314326 Ry

     iteration #  5     ecut=    60.00 Ry     beta= 0.50
     Davidson diagonalization with overlap
     ethr =  1.23E-04,  avg # of iterations =  3.8

     negative rho (up, down):  1.554E-02 0.000E+00

     total cpu time spent up to now is        7.3 secs

     total energy              =   -1228.38608928 Ry
     estimated scf accuracy    <       0.01794577 Ry

     iteration #  6     ecut=    60.00 Ry     beta= 0.50
     Davidson diagonalization with overlap
     ethr =  4.98E-05,  avg # of iterations =  2.8

     negative rho (up, down):  3.911E-03 0.000E+00

     total cpu time spent up to now is        8.2 secs

     total energy              =   -1228.36867320 Ry
     estimated scf accuracy    <       0.01978153 Ry

     iteration #  7     ecut=    60.00 Ry     beta= 0.50
     Davidson diagonalization with overlap
     ethr =  4.98E-05,  avg # of iterations =  4.7

     negative rho (up, down):  6.865E-03 0.000E+00

     total cpu time spent up to now is        9.3 secs

     total energy              =   -1228.38145121 Ry
     estimated scf accuracy    <       0.01945416 Ry

     iteration #  8     ecut=    60.00 Ry     beta= 0.50
     Davidson diagonalization with overlap
     ethr =  4.98E-05,  avg # of iterations =  2.0

     negative rho (up, down):  1.880E-03 0.000E+00

     total cpu time spent up to now is       10.1 secs

     total energy              =   -1228.37759989 Ry
     estimated scf accuracy    <       0.01642234 Ry

     iteration #  9     ecut=    60.00 Ry     beta= 0.50
     Davidson diagonalization with overlap
     ethr =  4.56E-05,  avg # of iterations =  2.0

     negative rho (up, down):  8.209E-04 0.000E+00

     total cpu time spent up to now is       11.0 secs

     total energy              =   -1228.37824561 Ry
     estimated scf accuracy    <       0.00680153 Ry

     iteration # 10     ecut=    60.00 Ry     beta= 0.50
     Davidson diagonalization with overlap
     ethr =  1.89E-05,  avg # of iterations =  3.9

     negative rho (up, down):  7.583E-04 0.000E+00

     total cpu time spent up to now is       11.9 secs

     total energy              =   -1228.37919914 Ry
     estimated scf accuracy    <       0.00052999 Ry

     iteration # 11     ecut=    60.00 Ry     beta= 0.50
     Davidson diagonalization with overlap
     ethr =  1.47E-06,  avg # of iterations =  4.9

     negative rho (up, down):  7.767E-04 0.000E+00

     total cpu time spent up to now is       12.9 secs

     total energy              =   -1228.37919077 Ry
     estimated scf accuracy    <       0.00054754 Ry

     iteration # 12     ecut=    60.00 Ry     beta= 0.50
     Davidson diagonalization with overlap
     ethr =  1.47E-06,  avg # of iterations =  3.4

     negative rho (up, down):  7.532E-04 0.000E+00

     total cpu time spent up to now is       13.8 secs

     total energy              =   -1228.37927976 Ry
     estimated scf accuracy    <       0.00005314 Ry

     iteration # 13     ecut=    60.00 Ry     beta= 0.50
     Davidson diagonalization with overlap
     ethr =  1.48E-07,  avg # of iterations =  5.3

     negative rho (up, down):  7.422E-04 0.000E+00

     total cpu time spent up to now is       14.8 secs

     total energy              =   -1228.37925413 Ry
     estimated scf accuracy    <       0.00018038 Ry

     iteration # 14     ecut=    60.00 Ry     beta= 0.50
     Davidson diagonalization with overlap
     ethr =  1.48E-07,  avg # of iterations =  5.1

     negative rho (up, down):  7.451E-04 0.000E+00

     total cpu time spent up to now is       15.8 secs

     total energy              =   -1228.37927897 Ry
     estimated scf accuracy    <       0.00001065 Ry

     iteration # 15     ecut=    60.00 Ry     beta= 0.50
     Davidson diagonalization with overlap
     ethr =  2.96E-08,  avg # of iterations =  3.5

     negative rho (up, down):  7.469E-04 0.000E+00

     total cpu time spent up to now is       16.7 secs

     total energy              =   -1228.37927682 Ry
     estimated scf accuracy    <       0.00002128 Ry

     iteration # 16     ecut=    60.00 Ry     beta= 0.50
     Davidson diagonalization with overlap
     ethr =  2.96E-08,  avg # of iterations =  3.4

     negative rho (up, down):  7.473E-04 0.000E+00

     total cpu time spent up to now is       17.6 secs

     total energy              =   -1228.37927686 Ry
     estimated scf accuracy    <       0.00000717 Ry

     iteration # 17     ecut=    60.00 Ry     beta= 0.50
     Davidson diagonalization with overlap
     ethr =  1.99E-08,  avg # of iterations =  3.2

     negative rho (up, down):  7.459E-04 0.000E+00

     total cpu time spent up to now is       18.5 secs

     total energy              =   -1228.37927760 Ry
     estimated scf accuracy    <       0.00000043 Ry

     iteration # 18     ecut=    60.00 Ry     beta= 0.50
     Davidson diagonalization with overlap
     ethr =  1.20E-09,  avg # of iterations =  5.5

     negative rho (up, down):  7.454E-04 0.000E+00

     total cpu time spent up to now is       19.5 secs

     total energy              =   -1228.37927773 Ry
     estimated scf accuracy    <       0.00000023 Ry

     iteration # 19     ecut=    60.00 Ry     beta= 0.50
     Davidson diagonalization with overlap
     ethr =  6.40E-10,  avg # of iterations =  1.2

     negative rho (up, down):  7.467E-04 0.000E+00

     total cpu time spent up to now is       20.3 secs

     total energy              =   -1228.37927769 Ry
     estimated scf accuracy    <       0.00000023 Ry

     iteration # 20     ecut=    60.00 Ry     beta= 0.50
     Davidson diagonalization with overlap
     ethr =  6.34E-10,  avg # of iterations =  2.4

     negative rho (up, down):  7.464E-04 0.000E+00

     total cpu time spent up to now is       21.2 secs

     total energy              =   -1228.37927769 Ry
     estimated scf accuracy    <       0.00000006 Ry

     iteration # 21     ecut=    60.00 Ry     beta= 0.50
     Davidson diagonalization with overlap
     ethr =  1.60E-10,  avg # of iterations =  5.5

     negative rho (up, down):  7.465E-04 0.000E+00

     total cpu time spent up to now is       22.2 secs

     total energy              =   -1228.37927770 Ry
     estimated scf accuracy    <       0.00000007 Ry

     iteration # 22     ecut=    60.00 Ry     beta= 0.50
     Davidson diagonalization with overlap
     ethr =  1.60E-10,  avg # of iterations =  3.4

     negative rho (up, down):  7.466E-04 0.000E+00

     total cpu time spent up to now is       23.1 secs

     total energy              =   -1228.37927771 Ry
     estimated scf accuracy    <       0.00000002 Ry

     iteration # 23     ecut=    60.00 Ry     beta= 0.50
     Davidson diagonalization with overlap
     ethr =  5.02E-11,  avg # of iterations =  5.4

     negative rho (up, down):  7.465E-04 0.000E+00

     total cpu time spent up to now is       24.2 secs

     total energy              =   -1228.37927771 Ry
     estimated scf accuracy    <       0.00000003 Ry

     iteration # 24     ecut=    60.00 Ry     beta= 0.50
     Davidson diagonalization with overlap
     ethr =  5.02E-11,  avg # of iterations =  1.8

     negative rho (up, down):  7.465E-04 0.000E+00

     total cpu time spent up to now is       25.0 secs

     total energy              =   -1228.37927771 Ry
     estimated scf accuracy    <       0.00000001 Ry

     iteration # 25     ecut=    60.00 Ry     beta= 0.50
     Davidson diagonalization with overlap
     ethr =  4.07E-11,  avg # of iterations =  3.1

     negative rho (up, down):  7.465E-04 0.000E+00

     total cpu time spent up to now is       25.8 secs

     End of self-consistent calculation

          k = 0.0000 0.0000 0.0000 ( 11811 PWs)   bands (ev):

   -75.2382 -48.4206 -48.4206 -48.4172 -48.4158 -48.4158 -39.4089 -39.1504
   -39.1504 -14.9931 -13.8031  -6.8568  -3.7196  -2.1970  -1.8502  -1.8502
    -0.7804  -0.7804

          k = 0.0000 0.0962 0.0000 ( 11801 PWs)   bands (ev):

   -75.2373 -48.4207 -48.4203 -48.4170 -48.4159 -48.4158 -39.4061 -39.1685
   -39.1548 -14.8944 -13.7268  -6.7023  -3.7427  -2.1655  -2.1274  -1.7393
    -1.0375  -0.9537

          k = 0.0000 0.1925 0.0000 ( 11789 PWs)   bands (ev):

   -75.2348 -48.4208 -48.4193 -48.4165 -48.4162 -48.4158 -39.3985 -39.2178
   -39.1667 -14.6095 -13.5066  -6.2706  -3.8281  -2.9521  -2.0271  -1.8006
    -1.4494  -1.3540

          k = 0.0000 0.2887 0.0000 ( 11777 PWs)   bands (ev):

   -75.2314 -48.4210 -48.4181 -48.4169 -48.4156 -48.4154 -39.3882 -39.2844
   -39.1829 -14.1752 -13.1719  -5.6841  -4.1600  -3.8850  -2.7586  -2.0499
    -1.8014  -1.1197

          k = 0.0000 0.3849 0.0000 ( 11771 PWs)   bands (ev):

   -75.2279 -48.4213 -48.4174 -48.4174 -48.4150 -48.4143 -39.3779 -39.3503
   -39.1991 -13.6675 -12.7821  -5.4793  -4.8974  -4.4187  -3.3042  -2.1825
    -2.1759  -0.9523

          k = 0.0000 0.4811 0.0000 ( 11733 PWs)   bands (ev):

   -75.2254 -48.4215 -48.4178 -48.4172 -48.4141 -48.4134 -39.3982 -39.3702
   -39.2110 -13.2258 -12.4424  -6.2094  -5.2659  -4.4772  -3.4671  -2.4194
    -2.0905  -0.9453

          k = 0.0000-0.5774 0.0000 ( 11704 PWs)   bands (ev):

   -75.2245 -48.4216 -48.4179 -48.4171 -48.4137 -48.4131 -39.4156 -39.3675
   -39.2153 -13.0431 -12.3003  -6.5429  -5.4926  -4.4315  -3.5022  -2.5035
    -1.9683  -0.9617

          k = 0.0833 0.1443 0.0000 ( 11799 PWs)   bands (ev):

   -75.2356 -48.4207 -48.4197 -48.4166 -48.4162 -48.4158 -39.4009 -39.2013
   -39.1638 -14.7025 -13.5784  -6.4075  -3.7911  -2.6949  -2.0440  -1.5972
    -1.5532  -1.2017

          k = 0.0833 0.2406 0.0000 ( 11778 PWs)   bands (ev):

   -75.2326 -48.4207 -48.4187 -48.4166 -48.4160 -48.4154 -39.3920 -39.2568
   -39.1803 -14.3418 -13.3000  -5.8811  -3.9163  -3.5628  -2.5218  -2.0172
    -1.6041  -1.2956

          k = 0.0833 0.3368 0.0000 ( 11775 PWs)   bands (ev):

   -75.2292 -48.4209 -48.4178 -48.4171 -48.4157 -48.4145 -39.3817 -39.3203
   -39.1993 -13.8665 -12.9340  -5.3339  -4.6145  -4.1521  -3.2883  -2.2245
    -2.0405  -1.1182

          k = 0.0833 0.4330 0.0000 ( 11746 PWs)   bands (ev):

   -75.2262 -48.4211 -48.4176 -48.4173 -48.4149 -48.4136 -39.3751 -39.3722
   -39.2158 -13.3803 -12.5601  -5.7701  -4.9808  -4.4867  -3.5034  -2.4848
    -2.2787  -1.1309

          k = 0.0833 0.5292 0.0000 ( 11686 PWs)   bands (ev):

   -75.2245 -48.4212 -48.4178 -48.4172 -48.4140 -48.4132 -39.4058 -39.3675
   -39.2253 -13.0533 -12.3064  -6.3642  -5.3720  -4.3889  -3.5061  -2.7150
    -2.2053  -1.1569

          k = 0.1667 0.2887 0.0000 ( 11767 PWs)   bands (ev):

   -75.2296 -48.4205 -48.4182 -48.4169 -48.4161 -48.4145 -39.3831 -39.3049
   -39.2038 -13.9370 -12.9876  -5.3204  -4.3766  -3.9655  -3.4208  -2.2701
    -1.9734  -1.2290

          k = 0.1667 0.3849 0.0000 ( 11741 PWs)   bands (ev):

   -75.2267 -48.4203 -48.4178 -48.4172 -48.4158 -48.4136 -39.3741 -39.3501
   -39.2298 -13.4707 -12.6275  -5.2373  -4.7395  -4.3773  -3.8194  -2.7071
    -2.4253  -1.2938

          k = 0.1667 0.4811 0.0000 ( 11711 PWs)   bands (ev):

   -75.2245 -48.4203 -48.4176 -48.4174 -48.4150 -48.4132 -39.3822 -39.3675
   -39.2496 -13.0733 -12.3184  -5.9052  -5.0522  -4.3266  -3.7042  -3.0609
    -2.7967  -1.2752

          k = 0.1667 0.5774 0.0000 ( 11682 PWs)   bands (ev):

   -75.2237 -48.4203 -48.4175 -48.4175 -48.4144 -48.4133 -39.3937 -39.3651
   -39.2570 -12.9120 -12.1911  -6.1779  -5.2726  -4.2538  -3.5319  -3.3020
    -2.9075  -1.2065

          k = 0.2500 0.4330 0.0000 ( 11731 PWs)   bands (ev):

   -75.2245 -48.4197 -48.4178 -48.4171 -48.4157 -48.4133 -39.3679 -39.3658
   -39.2659 -13.0832 -12.3242  -5.5588  -4.8000  -4.3409  -4.0016  -3.3513
    -2.9302  -1.2697

          k = 0.2500 0.5292 0.0000 ( 11689 PWs)   bands (ev):

   -75.2232 -48.4193 -48.4179 -48.4169 -48.4153 -48.4135 -39.3689 -39.3637
   -39.2933 -12.8350 -12.1267  -5.7518  -5.0966  -4.2219  -3.9383  -3.6806
    -3.3595  -1.0716

          k = 0.3333 0.5774 0.0000 ( 11694 PWs)   bands (ev):

   -75.2228 -48.4187 -48.4183 -48.4160 -48.4159 -48.4137 -39.3623 -39.3410
   -39.3324 -12.7447 -12.0532  -5.3721  -5.3366  -4.3857  -3.9885  -3.9145
    -3.5117  -0.9046

     highest occupied level (ev):    -0.7804

!    total energy              =   -1228.37927771 Ry
     total all-electron energy =    -37944.469708 Ry
     estimated scf accuracy    <          3.4E-09 Ry

     The total energy is the sum of the following terms:
     one-electron contribution =   -2749.50636605 Ry
     hartree contribution      =    1372.31460187 Ry
     xc contribution           =     -73.23289327 Ry
     ewald contribution        =    1014.62638954 Ry
     one-center paw contrib.   =    -792.58100980 Ry

     convergence has been achieved in  25 iterations

     Writing all to output data dir ./work/WSSe.save/

     init_run     :      0.99s CPU      1.05s WALL (       1 calls)
     electrons    :     23.35s CPU     24.53s WALL (       1 calls)

     Called by init_run:
     wfcinit      :      0.29s CPU      0.33s WALL (       1 calls)
     potinit      :      0.16s CPU      0.17s WALL (       1 calls)
     hinit0       :      0.44s CPU      0.44s WALL (       1 calls)

     Called by electrons:
     c_bands      :     15.97s CPU     16.92s WALL (      26 calls)
     sum_band     :      4.06s CPU      4.25s WALL (      26 calls)
     v_of_rho     :      0.16s CPU      0.16s WALL (      26 calls)
     newd         :      1.84s CPU      1.87s WALL (      26 calls)
     PAW_pot      :      1.32s CPU      1.36s WALL (      26 calls)
     mix_rho      :      0.08s CPU      0.08s WALL (      26 calls)

     Called by c_bands:
     init_us_2    :      0.29s CPU      0.31s WALL (    1007 calls)
     init_us_2:cp :      0.29s CPU      0.31s WALL (    1007 calls)
     cegterg      :     15.16s CPU     16.08s WALL (     494 calls)

     Called by *egterg:
     cdiaghg      :      0.62s CPU      0.64s WALL (    2389 calls)
     h_psi        :      9.89s CPU     10.70s WALL (    2427 calls)
     s_psi        :      1.31s CPU      1.36s WALL (    2427 calls)
     g_psi        :      0.05s CPU      0.05s WALL (    1914 calls)

     Called by h_psi:
     h_psi:calbec :      1.33s CPU      1.46s WALL (    2427 calls)
     vloc_psi     :      7.25s CPU      7.85s WALL (    2427 calls)
     add_vuspsi   :      1.28s CPU      1.36s WALL (    2427 calls)

     General routines
     calbec       :      1.79s CPU      1.96s WALL (    2921 calls)
     fft          :      0.33s CPU      0.34s WALL (     287 calls)
     ffts         :      0.01s CPU      0.01s WALL (      26 calls)
     fftw         :      7.92s CPU      8.58s WALL (   56274 calls)

     Parallel routines

     PWSCF        :     24.61s CPU     25.91s WALL


   This run was terminated on:  11: 9:15  30Jan2023            

=------------------------------------------------------------------------------=
   JOB DONE.
=------------------------------------------------------------------------------=
