
     Program PWSCF v.7.1 starts on 30Jan2023 at 11:11:42 

     This program is part of the open-source Quantum ESPRESSO suite
     for quantum simulation of materials; please cite
         "P. Giannozzi et al., J. Phys.:Condens. Matter 21 395502 (2009);
         "P. Giannozzi et al., J. Phys.:Condens. Matter 29 465901 (2017);
         "P. Giannozzi et al., J. Chem. Phys. 152 154105 (2020);
          URL http://www.quantum-espresso.org", 
     in publications or presentations arising from this work. More details at
     http://www.quantum-espresso.org/quote

     Parallel version (MPI), running on    12 processors

     MPI processes distributed on     1 nodes
     122179 MiB available memory on the printing compute node when the environment starts

     Waiting for input...
     Reading input from standard input

     Current dimensions of program PWSCF are:
     Max number of different atomic species (ntypx) = 10
     Max number of k-points (npk) =  40000
     Max angular momentum in pseudopotentials (lmaxx) =  4
     file W.pbe-spn-kjpaw_psl.1.0.0.UPF: wavefunction(s)  6S 5P 5D renormalized
     file S.pbe-n-kjpaw_psl.1.0.0.UPF: wavefunction(s)  3S 3P renormalized
     file Se.pbe-dn-kjpaw_psl.1.0.0.UPF: wavefunction(s)  4S 4P 3D renormalized
     Message from routine setup:
     using ibrav=0 with symmetry is DISCOURAGED, use correct ibrav instead

     R & G space division:  proc/nbgrp/npool/nimage =      12
     Subspace diagonalization in iterative solution of the eigenvalue problem:
     a serial algorithm will be used


     Parallelization info
     --------------------
     sticks:   dense  smooth     PW     G-vecs:    dense   smooth      PW
     Min          49      49     14                 7805     7805    1246
     Max          50      50     17                 7840     7840    1253
     Sum         595     595    187                93827    93827   14989

     Using Slab Decomposition



     bravais-lattice index     =            0
     lattice parameter (alat)  =       6.0471  a.u.
     unit-cell volume          =    1496.1227 (a.u.)^3
     number of atoms/cell      =            3
     number of atomic types    =            3
     number of electrons       =        36.00
     number of Kohn-Sham states=           18
     kinetic-energy cutoff     =      60.0000  Ry
     charge density cutoff     =     240.0000  Ry
     scf convergence threshold =      1.0E-08
     mixing beta               =       0.5000
     number of iterations used =            8  plain     mixing
     Exchange-correlation= SLA  PW   PBX  PBC
                           (   1   4   3   4   0   0   0)

     celldm(1)=   6.047124  celldm(2)=   0.000000  celldm(3)=   0.000000
     celldm(4)=   0.000000  celldm(5)=   0.000000  celldm(6)=   0.000000

     crystal axes: (cart. coord. in units of alat)
               a(1) = (   1.000000   0.000000   0.000000 )  
               a(2) = (  -0.500000   0.866025   0.000000 )  
               a(3) = (   0.000000   0.000000   7.812500 )  

     reciprocal axes: (cart. coord. in units 2 pi/alat)
               b(1) = (  1.000000  0.577350 -0.000000 )  
               b(2) = (  0.000000  1.154701  0.000000 )  
               b(3) = (  0.000000 -0.000000  0.128000 )  


     PseudoPot. # 1 for W  read from file:
     /home/mainadmin/research/danu/pseudo/W.pbe-spn-kjpaw_psl.1.0.0.UPF
     MD5 check sum: 03c3df5b60893f488392c7401945500a
     Pseudo is Projector augmented-wave + core cor, Zval = 14.0
     Generated using &quot;atomic&quot; code by A. Dal Corso  v.6.2.2
     Shape of augmentation charge: PSQ
     Using radial grid of 1273 points,  6 beta functions with: 
                l(1) =   0
                l(2) =   0
                l(3) =   1
                l(4) =   1
                l(5) =   2
                l(6) =   2
     Q(r) pseudized with 0 coefficients 


     PseudoPot. # 2 for S  read from file:
     /home/mainadmin/research/danu/pseudo/S.pbe-n-kjpaw_psl.1.0.0.UPF
     MD5 check sum: fb45dfebcf3e72a4e1bd4a866ec2e262
     Pseudo is Projector augmented-wave + core cor, Zval =  6.0
     Generated using &quot;atomic&quot; code by A. Dal Corso  v.6.3
     Shape of augmentation charge: PSQ
     Using radial grid of 1151 points,  6 beta functions with: 
                l(1) =   0
                l(2) =   0
                l(3) =   1
                l(4) =   1
                l(5) =   2
                l(6) =   2
     Q(r) pseudized with 0 coefficients 


     PseudoPot. # 3 for Se read from file:
     /home/mainadmin/research/danu/pseudo/Se.pbe-dn-kjpaw_psl.1.0.0.UPF
     MD5 check sum: ac240dd2bae32a30e0bf3a38df9c8785
     Pseudo is Projector augmented-wave + core cor, Zval = 16.0
     Generated using &quot;atomic&quot; code by A. Dal Corso  v.6.3
     Shape of augmentation charge: PSQ
     Using radial grid of 1211 points,  6 beta functions with: 
                l(1) =   0
                l(2) =   0
                l(3) =   1
                l(4) =   1
                l(5) =   2
                l(6) =   2
     Q(r) pseudized with 0 coefficients 


     atomic species   valence    mass     pseudopotential
        W             14.00   183.84000     W ( 1.00)
        S              6.00    32.06500     S ( 1.00)
        Se            16.00    78.96000     Se( 1.00)

      6 Sym. Ops. (no inversion) found



   Cartesian axes

     site n.     atom                  positions (alat units)
         1           Se  tau(   1) = (   0.5000000   0.2886751   4.5312500  )
         2           W   tau(   2) = (  -0.0000000   0.5773503   3.9062500  )
         3           S   tau(   3) = (   0.5000000   0.2886751  -4.5312500  )

     number of k points=    33
                       cart. coord. in units 2pi/alat
        k(    1) = (   0.0000000   0.0000000   0.0000000), wk =   0.0069204
        k(    2) = (   0.0000000   0.0679236   0.0000000), wk =   0.0415225
        k(    3) = (   0.0000000   0.1358471   0.0000000), wk =   0.0415225
        k(    4) = (   0.0000000   0.2037707   0.0000000), wk =   0.0415225
        k(    5) = (   0.0000000   0.2716942   0.0000000), wk =   0.0415225
        k(    6) = (   0.0000000   0.3396178   0.0000000), wk =   0.0415225
        k(    7) = (   0.0000000   0.4075414   0.0000000), wk =   0.0415225
        k(    8) = (   0.0000000   0.4754649   0.0000000), wk =   0.0415225
        k(    9) = (   0.0000000   0.5433885   0.0000000), wk =   0.0415225
        k(   10) = (   0.0588235   0.1018853   0.0000000), wk =   0.0415225
        k(   11) = (   0.0588235   0.1698089   0.0000000), wk =   0.0830450
        k(   12) = (   0.0588235   0.2377325   0.0000000), wk =   0.0830450
        k(   13) = (   0.0588235   0.3056560   0.0000000), wk =   0.0830450
        k(   14) = (   0.0588235   0.3735796   0.0000000), wk =   0.0830450
        k(   15) = (   0.0588235   0.4415031   0.0000000), wk =   0.0830450
        k(   16) = (   0.0588235   0.5094267   0.0000000), wk =   0.0830450
        k(   17) = (   0.0588235   0.5773503   0.0000000), wk =   0.0415225
        k(   18) = (   0.1176471   0.2037707   0.0000000), wk =   0.0415225
        k(   19) = (   0.1176471   0.2716942   0.0000000), wk =   0.0830450
        k(   20) = (   0.1176471   0.3396178   0.0000000), wk =   0.0830450
        k(   21) = (   0.1176471   0.4075414   0.0000000), wk =   0.0830450
        k(   22) = (   0.1176471   0.4754649   0.0000000), wk =   0.0830450
        k(   23) = (   0.1176471   0.5433885   0.0000000), wk =   0.0830450
        k(   24) = (   0.1764706   0.3056560   0.0000000), wk =   0.0415225
        k(   25) = (   0.1764706   0.3735796   0.0000000), wk =   0.0830450
        k(   26) = (   0.1764706   0.4415031   0.0000000), wk =   0.0830450
        k(   27) = (   0.1764706   0.5094267   0.0000000), wk =   0.0830450
        k(   28) = (   0.1764706   0.5773503   0.0000000), wk =   0.0415225
        k(   29) = (   0.2352941   0.4075414   0.0000000), wk =   0.0415225
        k(   30) = (   0.2352941   0.4754649   0.0000000), wk =   0.0830450
        k(   31) = (   0.2352941   0.5433885   0.0000000), wk =   0.0830450
        k(   32) = (   0.2941176   0.5094267   0.0000000), wk =   0.0415225
        k(   33) = (   0.2941176   0.5773503   0.0000000), wk =   0.0415225

     Dense  grid:    93827 G-vectors     FFT dimensions: (  30,  30, 240)

     Estimated max dynamical RAM per process >      40.97 MB

     Estimated total dynamical RAM >     491.63 MB

     Check: negative core charge=   -0.000001

     Initial potential from superposition of free atoms

     starting charge      35.9993, renormalised to      36.0000

     negative rho (up, down):  5.774E-04 0.000E+00
     Starting wfcs are   26 randomized atomic wfcs
     Checking if some PAW data can be deallocated... 

     total cpu time spent up to now is        1.6 secs

     Self-consistent Calculation

     iteration #  1     ecut=    60.00 Ry     beta= 0.50
     Davidson diagonalization with overlap
     ethr =  1.00E-02,  avg # of iterations =  2.0

     Threshold (ethr) on eigenvalues was too large:
     Diagonalizing with lowered threshold

     Davidson diagonalization with overlap
     ethr =  4.62E-04,  avg # of iterations =  2.2

     negative rho (up, down):  1.091E-03 0.000E+00

     total cpu time spent up to now is        4.1 secs

     total energy              =   -1228.30589692 Ry
     estimated scf accuracy    <       0.16858120 Ry

     iteration #  2     ecut=    60.00 Ry     beta= 0.50
     Davidson diagonalization with overlap
     ethr =  4.68E-04,  avg # of iterations =  8.3

     negative rho (up, down):  1.355E-03 0.000E+00

     total cpu time spent up to now is        6.1 secs

     total energy              =   -1228.07619677 Ry
     estimated scf accuracy    <       4.12967993 Ry

     iteration #  3     ecut=    60.00 Ry     beta= 0.50
     Davidson diagonalization with overlap
     ethr =  4.68E-04,  avg # of iterations =  7.7

     negative rho (up, down):  4.070E-03 0.000E+00

     total cpu time spent up to now is        8.1 secs

     total energy              =   -1228.37240194 Ry
     estimated scf accuracy    <       0.04764676 Ry

     iteration #  4     ecut=    60.00 Ry     beta= 0.50
     Davidson diagonalization with overlap
     ethr =  1.32E-04,  avg # of iterations =  4.7

     negative rho (up, down):  7.526E-03 0.000E+00

     total cpu time spent up to now is        9.7 secs

     total energy              =   -1228.37529110 Ry
     estimated scf accuracy    <       0.09499883 Ry

     iteration #  5     ecut=    60.00 Ry     beta= 0.50
     Davidson diagonalization with overlap
     ethr =  1.32E-04,  avg # of iterations =  3.7

     negative rho (up, down):  1.549E-02 0.000E+00

     total cpu time spent up to now is       11.1 secs

     total energy              =   -1228.38548528 Ry
     estimated scf accuracy    <       0.01615279 Ry

     iteration #  6     ecut=    60.00 Ry     beta= 0.50
     Davidson diagonalization with overlap
     ethr =  4.49E-05,  avg # of iterations =  3.3

     negative rho (up, down):  3.865E-03 0.000E+00

     total cpu time spent up to now is       12.5 secs

     total energy              =   -1228.36926045 Ry
     estimated scf accuracy    <       0.01737262 Ry

     iteration #  7     ecut=    60.00 Ry     beta= 0.50
     Davidson diagonalization with overlap
     ethr =  4.49E-05,  avg # of iterations =  4.9

     negative rho (up, down):  6.852E-03 0.000E+00

     total cpu time spent up to now is       14.2 secs

     total energy              =   -1228.38173112 Ry
     estimated scf accuracy    <       0.02479997 Ry

     iteration #  8     ecut=    60.00 Ry     beta= 0.50
     Davidson diagonalization with overlap
     ethr =  4.49E-05,  avg # of iterations =  2.0

     negative rho (up, down):  1.818E-03 0.000E+00

     total cpu time spent up to now is       15.5 secs

     total energy              =   -1228.37771539 Ry
     estimated scf accuracy    <       0.02035157 Ry

     iteration #  9     ecut=    60.00 Ry     beta= 0.50
     Davidson diagonalization with overlap
     ethr =  4.49E-05,  avg # of iterations =  2.0

     negative rho (up, down):  8.451E-04 0.000E+00

     total cpu time spent up to now is       16.9 secs

     total energy              =   -1228.37795813 Ry
     estimated scf accuracy    <       0.00937387 Ry

     iteration # 10     ecut=    60.00 Ry     beta= 0.50
     Davidson diagonalization with overlap
     ethr =  2.60E-05,  avg # of iterations =  3.6

     negative rho (up, down):  7.527E-04 0.000E+00

     total cpu time spent up to now is       18.3 secs

     total energy              =   -1228.37913347 Ry
     estimated scf accuracy    <       0.00057366 Ry

     iteration # 11     ecut=    60.00 Ry     beta= 0.50
     Davidson diagonalization with overlap
     ethr =  1.59E-06,  avg # of iterations =  5.3

     negative rho (up, down):  7.727E-04 0.000E+00

     total cpu time spent up to now is       20.0 secs

     total energy              =   -1228.37916120 Ry
     estimated scf accuracy    <       0.00066804 Ry

     iteration # 12     ecut=    60.00 Ry     beta= 0.50
     Davidson diagonalization with overlap
     ethr =  1.59E-06,  avg # of iterations =  4.1

     negative rho (up, down):  7.488E-04 0.000E+00

     total cpu time spent up to now is       21.5 secs

     total energy              =   -1228.37927962 Ry
     estimated scf accuracy    <       0.00015617 Ry

     iteration # 13     ecut=    60.00 Ry     beta= 0.50
     Davidson diagonalization with overlap
     ethr =  4.34E-07,  avg # of iterations =  2.0

     negative rho (up, down):  7.426E-04 0.000E+00

     total cpu time spent up to now is       22.8 secs

     total energy              =   -1228.37925785 Ry
     estimated scf accuracy    <       0.00010750 Ry

     iteration # 14     ecut=    60.00 Ry     beta= 0.50
     Davidson diagonalization with overlap
     ethr =  2.99E-07,  avg # of iterations =  4.2

     negative rho (up, down):  7.444E-04 0.000E+00

     total cpu time spent up to now is       24.3 secs

     total energy              =   -1228.37928291 Ry
     estimated scf accuracy    <       0.00002647 Ry

     iteration # 15     ecut=    60.00 Ry     beta= 0.50
     Davidson diagonalization with overlap
     ethr =  7.35E-08,  avg # of iterations =  1.4

     negative rho (up, down):  7.447E-04 0.000E+00

     total cpu time spent up to now is       25.5 secs

     total energy              =   -1228.37928128 Ry
     estimated scf accuracy    <       0.00002487 Ry

     iteration # 16     ecut=    60.00 Ry     beta= 0.50
     Davidson diagonalization with overlap
     ethr =  6.91E-08,  avg # of iterations =  1.6

     negative rho (up, down):  7.454E-04 0.000E+00

     total cpu time spent up to now is       26.7 secs

     total energy              =   -1228.37927827 Ry
     estimated scf accuracy    <       0.00001682 Ry

     iteration # 17     ecut=    60.00 Ry     beta= 0.50
     Davidson diagonalization with overlap
     ethr =  4.67E-08,  avg # of iterations =  4.0

     negative rho (up, down):  7.450E-04 0.000E+00

     total cpu time spent up to now is       28.1 secs

     total energy              =   -1228.37928088 Ry
     estimated scf accuracy    <       0.00000144 Ry

     iteration # 18     ecut=    60.00 Ry     beta= 0.50
     Davidson diagonalization with overlap
     ethr =  3.99E-09,  avg # of iterations =  3.3

     negative rho (up, down):  7.439E-04 0.000E+00

     total cpu time spent up to now is       29.5 secs

     total energy              =   -1228.37928096 Ry
     estimated scf accuracy    <       0.00000104 Ry

     iteration # 19     ecut=    60.00 Ry     beta= 0.50
     Davidson diagonalization with overlap
     ethr =  2.90E-09,  avg # of iterations =  1.4

     negative rho (up, down):  7.453E-04 0.000E+00

     total cpu time spent up to now is       30.7 secs

     total energy              =   -1228.37928089 Ry
     estimated scf accuracy    <       0.00000085 Ry

     iteration # 20     ecut=    60.00 Ry     beta= 0.50
     Davidson diagonalization with overlap
     ethr =  2.36E-09,  avg # of iterations =  2.7

     negative rho (up, down):  7.460E-04 0.000E+00

     total cpu time spent up to now is       32.0 secs

     total energy              =   -1228.37928094 Ry
     estimated scf accuracy    <       0.00000018 Ry

     iteration # 21     ecut=    60.00 Ry     beta= 0.50
     Davidson diagonalization with overlap
     ethr =  4.93E-10,  avg # of iterations =  4.4

     negative rho (up, down):  7.458E-04 0.000E+00

     total cpu time spent up to now is       33.4 secs

     total energy              =   -1228.37928096 Ry
     estimated scf accuracy    <       0.00000021 Ry

     iteration # 22     ecut=    60.00 Ry     beta= 0.50
     Davidson diagonalization with overlap
     ethr =  4.93E-10,  avg # of iterations =  1.8

     negative rho (up, down):  7.463E-04 0.000E+00

     total cpu time spent up to now is       34.7 secs

     total energy              =   -1228.37928099 Ry
     estimated scf accuracy    <       0.00000017 Ry

     iteration # 23     ecut=    60.00 Ry     beta= 0.50
     Davidson diagonalization with overlap
     ethr =  4.59E-10,  avg # of iterations =  2.4

     negative rho (up, down):  7.465E-04 0.000E+00

     total cpu time spent up to now is       36.1 secs

     total energy              =   -1228.37928092 Ry
     estimated scf accuracy    <       0.00000039 Ry

     iteration # 24     ecut=    60.00 Ry     beta= 0.50
     Davidson diagonalization with overlap
     ethr =  4.59E-10,  avg # of iterations =  3.7

     negative rho (up, down):  7.464E-04 0.000E+00

     total cpu time spent up to now is       37.5 secs

     total energy              =   -1228.37928093 Ry
     estimated scf accuracy    <       0.00000003 Ry

     iteration # 25     ecut=    60.00 Ry     beta= 0.50
     Davidson diagonalization with overlap
     ethr =  7.88E-11,  avg # of iterations =  7.6

     negative rho (up, down):  7.464E-04 0.000E+00

     total cpu time spent up to now is       39.6 secs

     total energy              =   -1228.37928095 Ry
     estimated scf accuracy    <       0.00000021 Ry

     iteration # 26     ecut=    60.00 Ry     beta= 0.50
     Davidson diagonalization with overlap
     ethr =  7.88E-11,  avg # of iterations =  2.8

     negative rho (up, down):  7.463E-04 0.000E+00

     total cpu time spent up to now is       41.0 secs

     total energy              =   -1228.37928093 Ry
     estimated scf accuracy    <       0.00000011 Ry

     iteration # 27     ecut=    60.00 Ry     beta= 0.50
     Davidson diagonalization with overlap
     ethr =  7.88E-11,  avg # of iterations =  5.5

     negative rho (up, down):  7.456E-04 0.000E+00

     total cpu time spent up to now is       42.6 secs

     End of self-consistent calculation

          k = 0.0000 0.0000 0.0000 ( 11811 PWs)   bands (ev):

   -75.2385 -48.4206 -48.4206 -48.4173 -48.4158 -48.4158 -39.4091 -39.1506
   -39.1506 -14.9932 -13.8032  -6.8568  -3.7196  -2.1971  -1.8503  -1.8503
    -0.7805  -0.7805

          k = 0.0000 0.0679 0.0000 ( 11803 PWs)   bands (ev):

   -75.2380 -48.4207 -48.4205 -48.4171 -48.4159 -48.4158 -39.4077 -39.1598
   -39.1528 -14.9438 -13.7650  -6.7793  -3.7309  -2.1664  -2.0055  -1.7943
    -0.9067  -0.8702

          k = 0.0000 0.1358 0.0000 ( 11809 PWs)   bands (ev):

   -75.2367 -48.4207 -48.4199 -48.4168 -48.4161 -48.4158 -39.4037 -39.1859
   -39.1591 -14.7983 -13.6525  -6.5540  -3.7678  -2.4399  -2.0851  -1.6359
    -1.2999  -1.1031

          k = 0.0000 0.2038 0.0000 ( 11807 PWs)   bands (ev):

   -75.2347 -48.4208 -48.4192 -48.4165 -48.4162 -48.4158 -39.3977 -39.2252
   -39.1687 -14.5652 -13.4725  -6.2059  -3.8455  -3.0659  -2.0302  -1.9033
    -1.4200  -1.3960

          k = 0.0000 0.2717 0.0000 ( 11773 PWs)   bands (ev):

   -75.2322 -48.4210 -48.4183 -48.4168 -48.4157 -48.4155 -39.3904 -39.2724
   -39.1802 -14.2601 -13.2373  -5.7880  -4.0471  -3.7514  -2.6078  -2.0259
    -1.7257  -1.1706

          k = 0.0000 0.3396 0.0000 ( 11759 PWs)   bands (ev):

   -75.2297 -48.4212 -48.4176 -48.4172 -48.4153 -48.4148 -39.3828 -39.3208
   -39.1920 -13.9086 -12.9671  -5.4337  -4.6277  -4.1819  -3.1163  -2.1352
    -2.0134  -1.0043

          k = 0.0000 0.4075 0.0000 ( 11769 PWs)   bands (ev):

   -75.2275 -48.4214 -48.4175 -48.4173 -48.4148 -48.4141 -39.3761 -39.3639
   -39.2027 -13.5510 -12.6927  -5.6369  -4.9570  -4.4924  -3.3634  -2.2465
    -2.1843  -0.9415

          k = 0.0000 0.4755 0.0000 ( 11725 PWs)   bands (ev):

   -75.2258 -48.4215 -48.4178 -48.4172 -48.4142 -48.4135 -39.3963 -39.3708
   -39.2107 -13.2465 -12.4585  -6.1715  -5.2412  -4.4827  -3.4624  -2.4095
    -2.1013  -0.9440

          k = 0.0000 0.5434 0.0000 ( 11708 PWs)   bands (ev):

   -75.2248 -48.4216 -48.4179 -48.4171 -48.4138 -48.4131 -39.4136 -39.3681
   -39.2150 -13.0671 -12.3191  -6.4994  -5.4625  -4.4369  -3.4983  -2.4930
    -1.9874  -0.9592

          k = 0.0588 0.1019 0.0000 ( 11767 PWs)   bands (ev):

   -75.2371 -48.4206 -48.4201 -48.4169 -48.4160 -48.4158 -39.4050 -39.1771
   -39.1573 -14.8463 -13.6896  -6.6277  -3.7543  -2.2992  -2.1077  -1.6902
    -1.1829  -1.0158

          k = 0.0588 0.1698 0.0000 ( 11807 PWs)   bands (ev):

   -75.2355 -48.4207 -48.4195 -48.4165 -48.4162 -48.4158 -39.4000 -39.2093
   -39.1659 -14.6569 -13.5432  -6.3392  -3.8056  -2.8180  -2.0312  -1.7132
    -1.5094  -1.2666

          k = 0.0588 0.2377 0.0000 ( 11794 PWs)   bands (ev):

   -75.2332 -48.4208 -48.4187 -48.4166 -48.4160 -48.4156 -39.3933 -39.2516
   -39.1773 -14.3873 -13.3352  -5.9491  -3.9119  -3.4754  -2.3911  -2.0051
    -1.5749  -1.2975

          k = 0.0588 0.3057 0.0000 ( 11795 PWs)   bands (ev):

   -75.2308 -48.4210 -48.4180 -48.4170 -48.4158 -48.4150 -39.3859 -39.2984
   -39.1899 -14.0578 -13.0815  -5.5335  -4.3117  -3.9995  -3.0002  -2.1101
    -1.8872  -1.1193

          k = 0.0588 0.3736 0.0000 ( 11767 PWs)   bands (ev):

   -75.2284 -48.4211 -48.4175 -48.4173 -48.4153 -48.4142 -39.3787 -39.3432
   -39.2021 -13.7005 -12.8070  -5.3784  -4.8449  -4.3577  -3.3448  -2.2520
    -2.1523  -1.0428

          k = 0.0588 0.4415 0.0000 ( 11734 PWs)   bands (ev):

   -75.2264 -48.4213 -48.4176 -48.4173 -48.4146 -48.4136 -39.3804 -39.3726
   -39.2122 -13.3648 -12.5489  -5.8762  -5.0516  -4.4952  -3.4647  -2.4284
    -2.2123  -1.0510

          k = 0.0588 0.5094 0.0000 ( 11696 PWs)   bands (ev):

   -75.2251 -48.4214 -48.4178 -48.4172 -48.4140 -48.4132 -39.4045 -39.3688
   -39.2189 -13.1172 -12.3573  -6.3273  -5.3444  -4.4274  -3.4966  -2.5768
    -2.1226  -1.0748

          k = 0.0588 0.5774 0.0000 ( 11688 PWs)   bands (ev):

   -75.2246 -48.4214 -48.4179 -48.4172 -48.4138 -48.4131 -39.4130 -39.3674
   -39.2212 -13.0249 -12.2851  -6.4954  -5.4621  -4.4032  -3.5012  -2.6307
    -2.0664  -1.0828

          k = 0.1176 0.2038 0.0000 ( 11789 PWs)   bands (ev):

   -75.2336 -48.4207 -48.4190 -48.4165 -48.4162 -48.4156 -39.3944 -39.2432
   -39.1774 -14.4307 -13.3686  -6.0039  -3.8655  -3.3576  -2.3342  -2.0036
    -1.4989  -1.3662

          k = 0.1176 0.2717 0.0000 ( 11791 PWs)   bands (ev):

   -75.2313 -48.4207 -48.4184 -48.4168 -48.4161 -48.4150 -39.3876 -39.2834
   -39.1919 -14.1355 -13.1408  -5.5922  -4.0625  -3.8904  -2.9972  -2.1105
    -1.7914  -1.2370

          k = 0.1176 0.3396 0.0000 ( 11774 PWs)   bands (ev):

   -75.2290 -48.4207 -48.4179 -48.4171 -48.4158 -48.4143 -39.3805 -39.3244
   -39.2071 -13.7968 -12.8800  -5.2235  -4.6676  -4.1469  -3.4720  -2.3269
    -2.1019  -1.1857

          k = 0.1176 0.4075 0.0000 ( 11755 PWs)   bands (ev):

   -75.2268 -48.4208 -48.4176 -48.4174 -48.4153 -48.4137 -39.3742 -39.3608
   -39.2208 -13.4544 -12.6162  -5.4963  -4.8319  -4.4643  -3.5994  -2.5448
    -2.3571  -1.2208

          k = 0.1176 0.4755 0.0000 ( 11714 PWs)   bands (ev):

   -75.2253 -48.4208 -48.4176 -48.4174 -48.4147 -48.4133 -39.3883 -39.3693
   -39.2311 -13.1651 -12.3923  -6.0119  -5.1225  -4.3986  -3.5741  -2.7678
    -2.4462  -1.2414

          k = 0.1176 0.5434 0.0000 ( 11689 PWs)   bands (ev):

   -75.2244 -48.4209 -48.4177 -48.4173 -48.4142 -48.4132 -39.4028 -39.3668
   -39.2367 -12.9958 -12.2598  -6.3161  -5.3452  -4.3352  -3.5156  -2.9345
    -2.4400  -1.2240

          k = 0.1765 0.3057 0.0000 ( 11751 PWs)   bands (ev):

   -75.2292 -48.4204 -48.4181 -48.4170 -48.4161 -48.4142 -39.3811 -39.3162
   -39.2103 -13.8300 -12.9051  -5.1838  -4.5589  -3.9981  -3.6109  -2.3705
    -2.0759  -1.2368

          k = 0.1765 0.3736 0.0000 ( 11731 PWs)   bands (ev):

   -75.2271 -48.4202 -48.4178 -48.4171 -48.4159 -48.4137 -39.3749 -39.3463
   -39.2296 -13.5026 -12.6521  -5.1479  -4.7610  -4.3099  -3.8646  -2.7031
    -2.4006  -1.2959

          k = 0.1765 0.4415 0.0000 ( 11725 PWs)   bands (ev):

   -75.2254 -48.4202 -48.4177 -48.4173 -48.4154 -48.4133 -39.3711 -39.3691
   -39.2463 -13.1996 -12.4168  -5.6399  -4.8392  -4.4051  -3.8093  -2.9905
    -2.7133  -1.3051

          k = 0.1765 0.5094 0.0000 ( 11693 PWs)   bands (ev):

   -75.2242 -48.4202 -48.4176 -48.4174 -48.4148 -48.4133 -39.3860 -39.3663
   -39.2577 -12.9798 -12.2444  -6.0025  -5.1406  -4.2738  -3.6762  -3.2115
    -2.9348  -1.2383

          k = 0.1765 0.5774 0.0000 ( 11688 PWs)   bands (ev):

   -75.2238 -48.4201 -48.4176 -48.4175 -48.4145 -48.4133 -39.3914 -39.3651
   -39.2617 -12.8986 -12.1801  -6.1363  -5.2510  -4.2407  -3.5489  -3.3651
    -3.0035  -1.1930

          k = 0.2353 0.4075 0.0000 ( 11719 PWs)   bands (ev):

   -75.2254 -48.4198 -48.4178 -48.4171 -48.4158 -48.4133 -39.3700 -39.3618
   -39.2540 -13.2121 -12.4255  -5.4380  -4.6529  -4.4512  -3.9909  -3.1451
    -2.7527  -1.3121

          k = 0.2353 0.4755 0.0000 ( 11709 PWs)   bands (ev):

   -75.2242 -48.4196 -48.4178 -48.4171 -48.4155 -48.4133 -39.3706 -39.3660
   -39.2755 -12.9733 -12.2374  -5.6891  -4.9516  -4.2576  -3.9596  -3.4876
    -3.0950  -1.2069

          k = 0.2353 0.5434 0.0000 ( 11683 PWs)   bands (ev):

   -75.2235 -48.4194 -48.4179 -48.4170 -48.4151 -48.4135 -39.3735 -39.3640
   -39.2886 -12.8367 -12.1285  -5.8348  -5.1240  -4.2157  -3.8562  -3.6164
    -3.3638  -1.0864

          k = 0.2941 0.5094 0.0000 ( 11710 PWs)   bands (ev):

   -75.2234 -48.4191 -48.4181 -48.4166 -48.4156 -48.4135 -39.3637 -39.3616
   -39.3036 -12.8156 -12.1108  -5.6255  -5.0994  -4.2343  -4.0529  -3.7760
    -3.3845  -1.0287

          k = 0.2941 0.5774 0.0000 ( 11684 PWs)   bands (ev):

   -75.2231 -48.4189 -48.4182 -48.4164 -48.4155 -48.4137 -39.3628 -39.3529
   -39.3190 -12.7588 -12.0648  -5.5449  -5.2008  -4.3452  -3.9794  -3.8682
    -3.4964  -0.9372

     highest occupied level (ev):    -0.7805

!    total energy              =   -1228.37928094 Ry
     total all-electron energy =    -37944.469711 Ry
     estimated scf accuracy    <          6.2E-09 Ry

     The total energy is the sum of the following terms:
     one-electron contribution =   -2749.50585533 Ry
     hartree contribution      =    1372.31408191 Ry
     xc contribution           =     -73.23288349 Ry
     ewald contribution        =    1014.62638954 Ry
     one-center paw contrib.   =    -792.58101358 Ry

     convergence has been achieved in  27 iterations

     Writing all to output data dir ./work/WSSe.save/

     init_run     :      1.20s CPU      1.29s WALL (       1 calls)
     electrons    :     38.76s CPU     41.10s WALL (       1 calls)

     Called by init_run:
     wfcinit      :      0.50s CPU      0.56s WALL (       1 calls)
     potinit      :      0.16s CPU      0.17s WALL (       1 calls)
     hinit0       :      0.44s CPU      0.44s WALL (       1 calls)

     Called by electrons:
     c_bands      :     29.18s CPU     31.13s WALL (      28 calls)
     sum_band     :      5.98s CPU      6.30s WALL (      28 calls)
     v_of_rho     :      0.16s CPU      0.17s WALL (      28 calls)
     newd         :      1.99s CPU      2.01s WALL (      28 calls)
     PAW_pot      :      1.44s CPU      1.50s WALL (      28 calls)
     mix_rho      :      0.09s CPU      0.09s WALL (      28 calls)

     Called by c_bands:
     init_us_2    :      0.52s CPU      0.55s WALL (    1881 calls)
     init_us_2:cp :      0.52s CPU      0.55s WALL (    1881 calls)
     cegterg      :     27.72s CPU     29.62s WALL (     924 calls)

     Called by *egterg:
     cdiaghg      :      1.10s CPU      1.14s WALL (    4274 calls)
     h_psi        :     18.07s CPU     19.74s WALL (    4340 calls)
     s_psi        :      2.34s CPU      2.46s WALL (    4340 calls)
     g_psi        :      0.09s CPU      0.10s WALL (    3383 calls)

     Called by h_psi:
     h_psi:calbec :      2.38s CPU      2.65s WALL (    4340 calls)
     vloc_psi     :     13.39s CPU     14.60s WALL (    4340 calls)
     add_vuspsi   :      2.24s CPU      2.43s WALL (    4340 calls)

     General routines
     calbec       :      3.26s CPU      3.61s WALL (    5264 calls)
     fft          :      0.34s CPU      0.34s WALL (     309 calls)
     ffts         :      0.01s CPU      0.01s WALL (      28 calls)
     fftw         :     14.67s CPU     15.98s WALL (  103914 calls)

     Parallel routines

     PWSCF        :     40.25s CPU     42.78s WALL


   This run was terminated on:  11:12:25  30Jan2023            

=------------------------------------------------------------------------------=
   JOB DONE.
=------------------------------------------------------------------------------=
