
     Program PWSCF v.7.1 starts on 30Jan2023 at 11: 9:50 

     This program is part of the open-source Quantum ESPRESSO suite
     for quantum simulation of materials; please cite
         "P. Giannozzi et al., J. Phys.:Condens. Matter 21 395502 (2009);
         "P. Giannozzi et al., J. Phys.:Condens. Matter 29 465901 (2017);
         "P. Giannozzi et al., J. Chem. Phys. 152 154105 (2020);
          URL http://www.quantum-espresso.org", 
     in publications or presentations arising from this work. More details at
     http://www.quantum-espresso.org/quote

     Parallel version (MPI), running on    12 processors

     MPI processes distributed on     1 nodes
     122203 MiB available memory on the printing compute node when the environment starts

     Waiting for input...
     Reading input from standard input

     Current dimensions of program PWSCF are:
     Max number of different atomic species (ntypx) = 10
     Max number of k-points (npk) =  40000
     Max angular momentum in pseudopotentials (lmaxx) =  4
     file W.pbe-spn-kjpaw_psl.1.0.0.UPF: wavefunction(s)  6S 5P 5D renormalized
     file S.pbe-n-kjpaw_psl.1.0.0.UPF: wavefunction(s)  3S 3P renormalized
     file Se.pbe-dn-kjpaw_psl.1.0.0.UPF: wavefunction(s)  4S 4P 3D renormalized
     Message from routine setup:
     using ibrav=0 with symmetry is DISCOURAGED, use correct ibrav instead

     R & G space division:  proc/nbgrp/npool/nimage =      12
     Subspace diagonalization in iterative solution of the eigenvalue problem:
     a serial algorithm will be used


     Parallelization info
     --------------------
     sticks:   dense  smooth     PW     G-vecs:    dense   smooth      PW
     Min          49      49     14                 7805     7805    1244
     Max          50      50     17                 7840     7840    1251
     Sum         595     595    187                93827    93827   14965

     Using Slab Decomposition



     bravais-lattice index     =            0
     lattice parameter (alat)  =       6.0471  a.u.
     unit-cell volume          =    1496.1227 (a.u.)^3
     number of atoms/cell      =            3
     number of atomic types    =            3
     number of electrons       =        36.00
     number of Kohn-Sham states=           18
     kinetic-energy cutoff     =      60.0000  Ry
     charge density cutoff     =     240.0000  Ry
     scf convergence threshold =      1.0E-08
     mixing beta               =       0.5000
     number of iterations used =            8  plain     mixing
     Exchange-correlation= SLA  PW   PBX  PBC
                           (   1   4   3   4   0   0   0)

     celldm(1)=   6.047124  celldm(2)=   0.000000  celldm(3)=   0.000000
     celldm(4)=   0.000000  celldm(5)=   0.000000  celldm(6)=   0.000000

     crystal axes: (cart. coord. in units of alat)
               a(1) = (   1.000000   0.000000   0.000000 )  
               a(2) = (  -0.500000   0.866025   0.000000 )  
               a(3) = (   0.000000   0.000000   7.812500 )  

     reciprocal axes: (cart. coord. in units 2 pi/alat)
               b(1) = (  1.000000  0.577350 -0.000000 )  
               b(2) = (  0.000000  1.154701  0.000000 )  
               b(3) = (  0.000000 -0.000000  0.128000 )  


     PseudoPot. # 1 for W  read from file:
     /home/mainadmin/research/danu/pseudo/W.pbe-spn-kjpaw_psl.1.0.0.UPF
     MD5 check sum: 03c3df5b60893f488392c7401945500a
     Pseudo is Projector augmented-wave + core cor, Zval = 14.0
     Generated using &quot;atomic&quot; code by A. Dal Corso  v.6.2.2
     Shape of augmentation charge: PSQ
     Using radial grid of 1273 points,  6 beta functions with: 
                l(1) =   0
                l(2) =   0
                l(3) =   1
                l(4) =   1
                l(5) =   2
                l(6) =   2
     Q(r) pseudized with 0 coefficients 


     PseudoPot. # 2 for S  read from file:
     /home/mainadmin/research/danu/pseudo/S.pbe-n-kjpaw_psl.1.0.0.UPF
     MD5 check sum: fb45dfebcf3e72a4e1bd4a866ec2e262
     Pseudo is Projector augmented-wave + core cor, Zval =  6.0
     Generated using &quot;atomic&quot; code by A. Dal Corso  v.6.3
     Shape of augmentation charge: PSQ
     Using radial grid of 1151 points,  6 beta functions with: 
                l(1) =   0
                l(2) =   0
                l(3) =   1
                l(4) =   1
                l(5) =   2
                l(6) =   2
     Q(r) pseudized with 0 coefficients 


     PseudoPot. # 3 for Se read from file:
     /home/mainadmin/research/danu/pseudo/Se.pbe-dn-kjpaw_psl.1.0.0.UPF
     MD5 check sum: ac240dd2bae32a30e0bf3a38df9c8785
     Pseudo is Projector augmented-wave + core cor, Zval = 16.0
     Generated using &quot;atomic&quot; code by A. Dal Corso  v.6.3
     Shape of augmentation charge: PSQ
     Using radial grid of 1211 points,  6 beta functions with: 
                l(1) =   0
                l(2) =   0
                l(3) =   1
                l(4) =   1
                l(5) =   2
                l(6) =   2
     Q(r) pseudized with 0 coefficients 


     atomic species   valence    mass     pseudopotential
        W             14.00   183.84000     W ( 1.00)
        S              6.00    32.06500     S ( 1.00)
        Se            16.00    78.96000     Se( 1.00)

      6 Sym. Ops. (no inversion) found



   Cartesian axes

     site n.     atom                  positions (alat units)
         1           Se  tau(   1) = (   0.5000000   0.2886751   4.5312500  )
         2           W   tau(   2) = (  -0.0000000   0.5773503   3.9062500  )
         3           S   tau(   3) = (   0.5000000   0.2886751  -4.5312500  )

     number of k points=    24
                       cart. coord. in units 2pi/alat
        k(    1) = (   0.0000000   0.0000000   0.0000000), wk =   0.0102041
        k(    2) = (   0.0000000   0.0824786   0.0000000), wk =   0.0612245
        k(    3) = (   0.0000000   0.1649572   0.0000000), wk =   0.0612245
        k(    4) = (   0.0000000   0.2474358   0.0000000), wk =   0.0612245
        k(    5) = (   0.0000000   0.3299144   0.0000000), wk =   0.0612245
        k(    6) = (   0.0000000   0.4123930   0.0000000), wk =   0.0612245
        k(    7) = (   0.0000000   0.4948717   0.0000000), wk =   0.0612245
        k(    8) = (   0.0000000  -0.5773503   0.0000000), wk =   0.0306122
        k(    9) = (   0.0714286   0.1237179   0.0000000), wk =   0.0612245
        k(   10) = (   0.0714286   0.2061965   0.0000000), wk =   0.1224490
        k(   11) = (   0.0714286   0.2886751   0.0000000), wk =   0.1224490
        k(   12) = (   0.0714286   0.3711537   0.0000000), wk =   0.1224490
        k(   13) = (   0.0714286   0.4536324   0.0000000), wk =   0.1224490
        k(   14) = (   0.0714286   0.5361110   0.0000000), wk =   0.1224490
        k(   15) = (   0.1428571   0.2474358   0.0000000), wk =   0.0612245
        k(   16) = (   0.1428571   0.3299144   0.0000000), wk =   0.1224490
        k(   17) = (   0.1428571   0.4123930   0.0000000), wk =   0.1224490
        k(   18) = (   0.1428571   0.4948717   0.0000000), wk =   0.1224490
        k(   19) = (   0.1428571   0.5773503   0.0000000), wk =   0.0612245
        k(   20) = (   0.2142857   0.3711537   0.0000000), wk =   0.0612245
        k(   21) = (   0.2142857   0.4536324   0.0000000), wk =   0.1224490
        k(   22) = (   0.2142857   0.5361110   0.0000000), wk =   0.1224490
        k(   23) = (   0.2857143   0.4948717   0.0000000), wk =   0.0612245
        k(   24) = (   0.2857143   0.5773503   0.0000000), wk =   0.0612245

     Dense  grid:    93827 G-vectors     FFT dimensions: (  30,  30, 240)

     Estimated max dynamical RAM per process >      38.55 MB

     Estimated total dynamical RAM >     462.62 MB

     Check: negative core charge=   -0.000001

     Initial potential from superposition of free atoms

     starting charge      35.9993, renormalised to      36.0000

     negative rho (up, down):  5.774E-04 0.000E+00
     Starting wfcs are   26 randomized atomic wfcs
     Checking if some PAW data can be deallocated... 

     total cpu time spent up to now is        1.4 secs

     Self-consistent Calculation

     iteration #  1     ecut=    60.00 Ry     beta= 0.50
     Davidson diagonalization with overlap
     ethr =  1.00E-02,  avg # of iterations =  2.0

     Threshold (ethr) on eigenvalues was too large:
     Diagonalizing with lowered threshold

     Davidson diagonalization with overlap
     ethr =  4.61E-04,  avg # of iterations =  2.1

     negative rho (up, down):  1.117E-03 0.000E+00

     total cpu time spent up to now is        3.3 secs

     total energy              =   -1228.30587146 Ry
     estimated scf accuracy    <       0.16857150 Ry

     iteration #  2     ecut=    60.00 Ry     beta= 0.50
     Davidson diagonalization with overlap
     ethr =  4.68E-04,  avg # of iterations =  8.5

     negative rho (up, down):  1.417E-03 0.000E+00

     total cpu time spent up to now is        4.8 secs

     total energy              =   -1228.07472137 Ry
     estimated scf accuracy    <       4.15401096 Ry

     iteration #  3     ecut=    60.00 Ry     beta= 0.50
     Davidson diagonalization with overlap
     ethr =  4.68E-04,  avg # of iterations =  7.9

     negative rho (up, down):  4.314E-03 0.000E+00

     total cpu time spent up to now is        6.4 secs

     total energy              =   -1228.37214746 Ry
     estimated scf accuracy    <       0.05006778 Ry

     iteration #  4     ecut=    60.00 Ry     beta= 0.50
     Davidson diagonalization with overlap
     ethr =  1.39E-04,  avg # of iterations =  4.8

     negative rho (up, down):  7.968E-03 0.000E+00

     total cpu time spent up to now is        7.6 secs

     total energy              =   -1228.37545778 Ry
     estimated scf accuracy    <       0.09822789 Ry

     iteration #  5     ecut=    60.00 Ry     beta= 0.50
     Davidson diagonalization with overlap
     ethr =  1.39E-04,  avg # of iterations =  3.8

     negative rho (up, down):  1.519E-02 0.000E+00

     total cpu time spent up to now is        8.7 secs

     total energy              =   -1228.38576690 Ry
     estimated scf accuracy    <       0.01697187 Ry

     iteration #  6     ecut=    60.00 Ry     beta= 0.50
     Davidson diagonalization with overlap
     ethr =  4.71E-05,  avg # of iterations =  3.2

     negative rho (up, down):  3.795E-03 0.000E+00

     total cpu time spent up to now is        9.8 secs

     total energy              =   -1228.36950879 Ry
     estimated scf accuracy    <       0.01766025 Ry

     iteration #  7     ecut=    60.00 Ry     beta= 0.50
     Davidson diagonalization with overlap
     ethr =  4.71E-05,  avg # of iterations =  5.0

     negative rho (up, down):  7.097E-03 0.000E+00

     total cpu time spent up to now is       11.1 secs

     total energy              =   -1228.38133910 Ry
     estimated scf accuracy    <       0.02765825 Ry

     iteration #  8     ecut=    60.00 Ry     beta= 0.50
     Davidson diagonalization with overlap
     ethr =  4.71E-05,  avg # of iterations =  2.0

     negative rho (up, down):  1.851E-03 0.000E+00

     total cpu time spent up to now is       12.1 secs

     total energy              =   -1228.37764221 Ry
     estimated scf accuracy    <       0.02032477 Ry

     iteration #  9     ecut=    60.00 Ry     beta= 0.50
     Davidson diagonalization with overlap
     ethr =  4.71E-05,  avg # of iterations =  2.0

     negative rho (up, down):  8.496E-04 0.000E+00

     total cpu time spent up to now is       13.2 secs

     total energy              =   -1228.37782062 Ry
     estimated scf accuracy    <       0.00949296 Ry

     iteration # 10     ecut=    60.00 Ry     beta= 0.50
     Davidson diagonalization with overlap
     ethr =  2.64E-05,  avg # of iterations =  3.9

     negative rho (up, down):  7.743E-04 0.000E+00

     total cpu time spent up to now is       14.3 secs

     total energy              =   -1228.37918260 Ry
     estimated scf accuracy    <       0.00060636 Ry

     iteration # 11     ecut=    60.00 Ry     beta= 0.50
     Davidson diagonalization with overlap
     ethr =  1.68E-06,  avg # of iterations =  4.8

     negative rho (up, down):  7.704E-04 0.000E+00

     total cpu time spent up to now is       15.5 secs

     total energy              =   -1228.37911965 Ry
     estimated scf accuracy    <       0.00080499 Ry

     iteration # 12     ecut=    60.00 Ry     beta= 0.50
     Davidson diagonalization with overlap
     ethr =  1.68E-06,  avg # of iterations =  4.6

     negative rho (up, down):  7.478E-04 0.000E+00

     total cpu time spent up to now is       16.7 secs

     total energy              =   -1228.37926822 Ry
     estimated scf accuracy    <       0.00039186 Ry

     iteration # 13     ecut=    60.00 Ry     beta= 0.50
     Davidson diagonalization with overlap
     ethr =  1.09E-06,  avg # of iterations =  1.7

     negative rho (up, down):  7.422E-04 0.000E+00

     total cpu time spent up to now is       17.7 secs

     total energy              =   -1228.37923692 Ry
     estimated scf accuracy    <       0.00016159 Ry

     iteration # 14     ecut=    60.00 Ry     beta= 0.50
     Davidson diagonalization with overlap
     ethr =  4.49E-07,  avg # of iterations =  5.0

     negative rho (up, down):  7.451E-04 0.000E+00

     total cpu time spent up to now is       18.9 secs

     total energy              =   -1228.37928504 Ry
     estimated scf accuracy    <       0.00012782 Ry

     iteration # 15     ecut=    60.00 Ry     beta= 0.50
     Davidson diagonalization with overlap
     ethr =  3.55E-07,  avg # of iterations =  1.0

     negative rho (up, down):  7.464E-04 0.000E+00

     total cpu time spent up to now is       19.8 secs

     total energy              =   -1228.37927264 Ry
     estimated scf accuracy    <       0.00008966 Ry

     iteration # 16     ecut=    60.00 Ry     beta= 0.50
     Davidson diagonalization with overlap
     ethr =  2.49E-07,  avg # of iterations =  3.5

     negative rho (up, down):  7.462E-04 0.000E+00

     total cpu time spent up to now is       20.9 secs

     total energy              =   -1228.37927945 Ry
     estimated scf accuracy    <       0.00000534 Ry

     iteration # 17     ecut=    60.00 Ry     beta= 0.50
     Davidson diagonalization with overlap
     ethr =  1.48E-08,  avg # of iterations =  5.2

     negative rho (up, down):  7.468E-04 0.000E+00

     total cpu time spent up to now is       22.1 secs

     total energy              =   -1228.37928161 Ry
     estimated scf accuracy    <       0.00000144 Ry

     iteration # 18     ecut=    60.00 Ry     beta= 0.50
     Davidson diagonalization with overlap
     ethr =  4.01E-09,  avg # of iterations =  4.3

     negative rho (up, down):  7.453E-04 0.000E+00

     total cpu time spent up to now is       23.2 secs

     total energy              =   -1228.37928160 Ry
     estimated scf accuracy    <       0.00000460 Ry

     iteration # 19     ecut=    60.00 Ry     beta= 0.50
     Davidson diagonalization with overlap
     ethr =  4.01E-09,  avg # of iterations =  1.0

     negative rho (up, down):  7.466E-04 0.000E+00

     total cpu time spent up to now is       24.2 secs

     total energy              =   -1228.37928141 Ry
     estimated scf accuracy    <       0.00000413 Ry

     iteration # 20     ecut=    60.00 Ry     beta= 0.50
     Davidson diagonalization with overlap
     ethr =  4.01E-09,  avg # of iterations =  1.3

     negative rho (up, down):  7.474E-04 0.000E+00

     total cpu time spent up to now is       25.1 secs

     total energy              =   -1228.37928043 Ry
     estimated scf accuracy    <       0.00000307 Ry

     iteration # 21     ecut=    60.00 Ry     beta= 0.50
     Davidson diagonalization with overlap
     ethr =  4.01E-09,  avg # of iterations =  5.7

     negative rho (up, down):  7.465E-04 0.000E+00

     total cpu time spent up to now is       26.4 secs

     total energy              =   -1228.37928125 Ry
     estimated scf accuracy    <       0.00000272 Ry

     iteration # 22     ecut=    60.00 Ry     beta= 0.50
     Davidson diagonalization with overlap
     ethr =  4.01E-09,  avg # of iterations =  1.9

     negative rho (up, down):  7.463E-04 0.000E+00

     total cpu time spent up to now is       27.4 secs

     total energy              =   -1228.37928115 Ry
     estimated scf accuracy    <       0.00000128 Ry

     iteration # 23     ecut=    60.00 Ry     beta= 0.50
     Davidson diagonalization with overlap
     ethr =  3.55E-09,  avg # of iterations =  3.0

     negative rho (up, down):  7.463E-04 0.000E+00

     total cpu time spent up to now is       28.4 secs

     total energy              =   -1228.37928120 Ry
     estimated scf accuracy    <       0.00000024 Ry

     iteration # 24     ecut=    60.00 Ry     beta= 0.50
     Davidson diagonalization with overlap
     ethr =  6.69E-10,  avg # of iterations =  4.9

     negative rho (up, down):  7.458E-04 0.000E+00

     total cpu time spent up to now is       29.6 secs

     End of self-consistent calculation

          k = 0.0000 0.0000 0.0000 ( 11811 PWs)   bands (ev):

   -75.2384 -48.4206 -48.4206 -48.4172 -48.4158 -48.4158 -39.4090 -39.1505
   -39.1505 -14.9931 -13.8032  -6.8568  -3.7196  -2.1970  -1.8503  -1.8503
    -0.7805  -0.7805

          k = 0.0000 0.0825 0.0000 ( 11799 PWs)   bands (ev):

   -75.2377 -48.4206 -48.4203 -48.4170 -48.4159 -48.4158 -39.4070 -39.1639
   -39.1538 -14.9204 -13.7470  -6.7429  -3.7364  -2.1539  -2.0755  -1.7682
    -0.9680  -0.9103

          k = 0.0000 0.1650 0.0000 ( 11795 PWs)   bands (ev):

   -75.2358 -48.4207 -48.4196 -48.4166 -48.4161 -48.4158 -39.4012 -39.2013
   -39.1628 -14.7083 -13.5830  -6.4176  -3.7943  -2.6898  -2.0495  -1.5442
    -1.5439  -1.2289

          k = 0.0000 0.2474 0.0000 ( 11789 PWs)   bands (ev):

   -75.2330 -48.4209 -48.4186 -48.4166 -48.4158 -48.4157 -39.3930 -39.2549
   -39.1758 -14.3759 -13.3265  -5.9399  -3.9450  -3.5175  -2.3752  -2.0015
    -1.6143  -1.2507

          k = 0.0000 0.3299 0.0000 ( 11759 PWs)   bands (ev):

   -75.2300 -48.4211 -48.4177 -48.4171 -48.4154 -48.4148 -39.3838 -39.3139
   -39.1903 -13.9602 -13.0068  -5.4683  -4.5390  -4.1279  -3.0606  -2.1196
    -1.9751  -1.0216

          k = 0.0000 0.4124 0.0000 ( 11767 PWs)   bands (ev):

   -75.2272 -48.4214 -48.4175 -48.4172 -48.4147 -48.4140 -39.3756 -39.3665
   -39.2033 -13.5266 -12.6741  -5.6758  -4.9714  -4.5013  -3.3739  -2.2606
    -2.1824  -0.9402

          k = 0.0000 0.4949 0.0000 ( 11725 PWs)   bands (ev):

   -75.2253 -48.4216 -48.4178 -48.4171 -48.4140 -48.4133 -39.4028 -39.3697
   -39.2122 -13.1794 -12.4065  -6.2942  -5.3225  -4.4649  -3.4772  -2.4417
    -2.0644  -0.9488

          k = 0.0000-0.5774 0.0000 ( 11704 PWs)   bands (ev):

   -75.2246 -48.4216 -48.4179 -48.4171 -48.4137 -48.4130 -39.4157 -39.3676
   -39.2154 -13.0431 -12.3003  -6.5430  -5.4927  -4.4315  -3.5023  -2.5035
    -1.9684  -0.9618

          k = 0.0714 0.1237 0.0000 ( 11777 PWs)   bands (ev):

   -75.2364 -48.4206 -48.4199 -48.4167 -48.4160 -48.4158 -39.4031 -39.1888
   -39.1604 -14.7780 -13.6368  -6.5226  -3.7715  -2.4914  -2.0746  -1.6227
    -1.3796  -1.1078

          k = 0.0714 0.2062 0.0000 ( 11803 PWs)   bands (ev):

   -75.2341 -48.4207 -48.4191 -48.4164 -48.4162 -48.4157 -39.3961 -39.2330
   -39.1728 -14.5053 -13.4262  -6.1150  -3.8525  -3.1945  -2.1276  -1.9959
    -1.4379  -1.3923

          k = 0.0714 0.2887 0.0000 ( 11776 PWs)   bands (ev):

   -75.2312 -48.4208 -48.4181 -48.4168 -48.4158 -48.4150 -39.3874 -39.2876
   -39.1882 -14.1297 -13.1367  -5.6081  -4.1609  -3.9171  -2.9152  -2.0876
    -1.8179  -1.1699

          k = 0.0714 0.3712 0.0000 ( 11777 PWs)   bands (ev):

   -75.2283 -48.4210 -48.4175 -48.4173 -48.4154 -48.4142 -39.3786 -39.3416
   -39.2037 -13.7006 -12.8069  -5.3468  -4.8313  -4.3413  -3.3744  -2.2777
    -2.1570  -1.0759

          k = 0.0714 0.4536 0.0000 ( 11731 PWs)   bands (ev):

   -75.2259 -48.4212 -48.4176 -48.4172 -48.4146 -48.4135 -39.3848 -39.3715
   -39.2160 -13.3016 -12.4998  -5.9533  -5.0931  -4.4751  -3.4914  -2.5019
    -2.2348  -1.0993

          k = 0.0714 0.5361 0.0000 ( 11693 PWs)   bands (ev):

   -75.2246 -48.4213 -48.4178 -48.4172 -48.4139 -48.4131 -39.4085 -39.3676
   -39.2229 -13.0508 -12.3050  -6.4106  -5.4035  -4.3992  -3.5020  -2.6651
    -2.1394  -1.1211

          k = 0.1429 0.2474 0.0000 ( 11777 PWs)   bands (ev):

   -75.2316 -48.4206 -48.4185 -48.4167 -48.4161 -48.4150 -39.3886 -39.2758
   -39.1899 -14.1884 -13.1816  -5.6593  -3.9695  -3.8342  -2.9080  -2.0861
    -1.7357  -1.2662

          k = 0.1429 0.3299 0.0000 ( 11782 PWs)   bands (ev):

   -75.2288 -48.4205 -48.4180 -48.4170 -48.4159 -48.4142 -39.3803 -39.3215
   -39.2103 -13.7948 -12.8781  -5.1729  -4.6378  -4.0793  -3.5766  -2.3741
    -2.1078  -1.2221

          k = 0.1429 0.4124 0.0000 ( 11739 PWs)   bands (ev):

   -75.2263 -48.4205 -48.4176 -48.4173 -48.4154 -48.4135 -39.3729 -39.3619
   -39.2291 -13.3886 -12.5646  -5.4878  -4.7857  -4.4640  -3.7028  -2.6860
    -2.4620  -1.2767

          k = 0.1429 0.4949 0.0000 ( 11705 PWs)   bands (ev):

   -75.2246 -48.4205 -48.4176 -48.4174 -48.4147 -48.4132 -39.3897 -39.3676
   -39.2422 -13.0678 -12.3152  -6.0524  -5.1566  -4.3376  -3.6091  -2.9665
    -2.6419  -1.2639

          k = 0.1429 0.5774 0.0000 ( 11686 PWs)   bands (ev):

   -75.2240 -48.4205 -48.4176 -48.4174 -48.4142 -48.4132 -39.3995 -39.3658
   -39.2469 -12.9432 -12.2171  -6.2711  -5.3244  -4.2894  -3.5119  -3.1351
    -2.6716  -1.2258

          k = 0.2143 0.3712 0.0000 ( 11721 PWs)   bands (ev):

   -75.2265 -48.4200 -48.4178 -48.4171 -48.4159 -48.4135 -39.3733 -39.3502
   -39.2373 -13.4200 -12.5878  -5.1929  -4.6864  -4.3572  -3.9663  -2.8465
    -2.5002  -1.3169

          k = 0.2143 0.4536 0.0000 ( 11713 PWs)   bands (ev):

   -75.2246 -48.4198 -48.4177 -48.4171 -48.4155 -48.4132 -39.3701 -39.3674
   -39.2624 -13.0813 -12.3231  -5.6405  -4.8597  -4.3338  -3.9237  -3.2810
    -2.9185  -1.2733

          k = 0.2143 0.5361 0.0000 ( 11685 PWs)   bands (ev):

   -75.2236 -48.4196 -48.4177 -48.4171 -48.4149 -48.4134 -39.3793 -39.3645
   -39.2777 -12.8744 -12.1593  -5.9218  -5.1381  -4.2165  -3.7663  -3.4966
    -3.2565  -1.1428

          k = 0.2857 0.4949 0.0000 ( 11714 PWs)   bands (ev):

   -75.2234 -48.4192 -48.4180 -48.4167 -48.4155 -48.4134 -39.3648 -39.3638
   -39.2963 -12.8511 -12.1394  -5.6477  -5.0553  -4.2022  -4.0606  -3.7270
    -3.3162  -1.0773

          k = 0.2857 0.5774 0.0000 ( 11688 PWs)   bands (ev):

   -75.2230 -48.4189 -48.4181 -48.4164 -48.4154 -48.4136 -39.3628 -39.3559
   -39.3151 -12.7650 -12.0699  -5.5885  -5.1778  -4.3271  -3.9711  -3.8461
    -3.4900  -0.9515

     highest occupied level (ev):    -0.7805

!    total energy              =   -1228.37928125 Ry
     total all-electron energy =    -37944.469712 Ry
     estimated scf accuracy    <          2.5E-09 Ry

     The total energy is the sum of the following terms:
     one-electron contribution =   -2749.50364809 Ry
     hartree contribution      =    1372.31181999 Ry
     xc contribution           =     -73.23283892 Ry
     ewald contribution        =    1014.62638954 Ry
     one-center paw contrib.   =    -792.58100376 Ry

     convergence has been achieved in  24 iterations

     Writing all to output data dir ./work/WSSe.save/

     init_run     :      1.08s CPU      1.14s WALL (       1 calls)
     electrons    :     26.44s CPU     28.17s WALL (       1 calls)

     Called by init_run:
     wfcinit      :      0.37s CPU      0.41s WALL (       1 calls)
     potinit      :      0.17s CPU      0.17s WALL (       1 calls)
     hinit0       :      0.44s CPU      0.44s WALL (       1 calls)

     Called by electrons:
     c_bands      :     18.94s CPU     20.28s WALL (      25 calls)
     sum_band     :      4.34s CPU      4.64s WALL (      25 calls)
     v_of_rho     :      0.15s CPU      0.15s WALL (      25 calls)
     newd         :      1.79s CPU      1.81s WALL (      25 calls)
     PAW_pot      :      1.25s CPU      1.31s WALL (      25 calls)
     mix_rho      :      0.08s CPU      0.08s WALL (      25 calls)

     Called by c_bands:
     init_us_2    :      0.35s CPU      0.37s WALL (    1224 calls)
     init_us_2:cp :      0.35s CPU      0.37s WALL (    1224 calls)
     cegterg      :     17.96s CPU     19.27s WALL (     600 calls)

     Called by *egterg:
     cdiaghg      :      0.71s CPU      0.75s WALL (    2803 calls)
     h_psi        :     11.84s CPU     12.97s WALL (    2851 calls)
     s_psi        :      1.54s CPU      1.63s WALL (    2851 calls)
     g_psi        :      0.06s CPU      0.06s WALL (    2227 calls)

     Called by h_psi:
     h_psi:calbec :      1.57s CPU      1.77s WALL (    2851 calls)
     vloc_psi     :      8.72s CPU      9.51s WALL (    2851 calls)
     add_vuspsi   :      1.51s CPU      1.65s WALL (    2851 calls)

     General routines
     calbec       :      2.13s CPU      2.40s WALL (    3451 calls)
     fft          :      0.33s CPU      0.33s WALL (     276 calls)
     ffts         :      0.01s CPU      0.01s WALL (      25 calls)
     fftw         :      9.53s CPU     10.43s WALL (   67634 calls)

     Parallel routines

     PWSCF        :     27.80s CPU     29.66s WALL


   This run was terminated on:  11:10:20  30Jan2023            

=------------------------------------------------------------------------------=
   JOB DONE.
=------------------------------------------------------------------------------=
