
     Program PWSCF v.7.1 starts on 30Jan2023 at 11:16:23 

     This program is part of the open-source Quantum ESPRESSO suite
     for quantum simulation of materials; please cite
         "P. Giannozzi et al., J. Phys.:Condens. Matter 21 395502 (2009);
         "P. Giannozzi et al., J. Phys.:Condens. Matter 29 465901 (2017);
         "P. Giannozzi et al., J. Chem. Phys. 152 154105 (2020);
          URL http://www.quantum-espresso.org", 
     in publications or presentations arising from this work. More details at
     http://www.quantum-espresso.org/quote

     Parallel version (MPI), running on    12 processors

     MPI processes distributed on     1 nodes
     122108 MiB available memory on the printing compute node when the environment starts

     Waiting for input...
     Reading input from standard input

     Current dimensions of program PWSCF are:
     Max number of different atomic species (ntypx) = 10
     Max number of k-points (npk) =  40000
     Max angular momentum in pseudopotentials (lmaxx) =  4
     file W.pbe-spn-kjpaw_psl.1.0.0.UPF: wavefunction(s)  6S 5P 5D renormalized
     file S.pbe-n-kjpaw_psl.1.0.0.UPF: wavefunction(s)  3S 3P renormalized
     file Se.pbe-dn-kjpaw_psl.1.0.0.UPF: wavefunction(s)  4S 4P 3D renormalized
     Message from routine setup:
     using ibrav=0 with symmetry is DISCOURAGED, use correct ibrav instead

     R & G space division:  proc/nbgrp/npool/nimage =      12
     Subspace diagonalization in iterative solution of the eigenvalue problem:
     a serial algorithm will be used


     Parallelization info
     --------------------
     sticks:   dense  smooth     PW     G-vecs:    dense   smooth      PW
     Min          49      49     14                 7805     7805    1240
     Max          50      50     18                 7840     7840    1246
     Sum         595     595    187                93827    93827   14917

     Using Slab Decomposition



     bravais-lattice index     =            0
     lattice parameter (alat)  =       6.0471  a.u.
     unit-cell volume          =    1496.1227 (a.u.)^3
     number of atoms/cell      =            3
     number of atomic types    =            3
     number of electrons       =        36.00
     number of Kohn-Sham states=           18
     kinetic-energy cutoff     =      60.0000  Ry
     charge density cutoff     =     240.0000  Ry
     scf convergence threshold =      1.0E-08
     mixing beta               =       0.5000
     number of iterations used =            8  plain     mixing
     Exchange-correlation= SLA  PW   PBX  PBC
                           (   1   4   3   4   0   0   0)

     celldm(1)=   6.047124  celldm(2)=   0.000000  celldm(3)=   0.000000
     celldm(4)=   0.000000  celldm(5)=   0.000000  celldm(6)=   0.000000

     crystal axes: (cart. coord. in units of alat)
               a(1) = (   1.000000   0.000000   0.000000 )  
               a(2) = (  -0.500000   0.866025   0.000000 )  
               a(3) = (   0.000000   0.000000   7.812500 )  

     reciprocal axes: (cart. coord. in units 2 pi/alat)
               b(1) = (  1.000000  0.577350 -0.000000 )  
               b(2) = (  0.000000  1.154701  0.000000 )  
               b(3) = (  0.000000 -0.000000  0.128000 )  


     PseudoPot. # 1 for W  read from file:
     /home/mainadmin/research/danu/pseudo/W.pbe-spn-kjpaw_psl.1.0.0.UPF
     MD5 check sum: 03c3df5b60893f488392c7401945500a
     Pseudo is Projector augmented-wave + core cor, Zval = 14.0
     Generated using &quot;atomic&quot; code by A. Dal Corso  v.6.2.2
     Shape of augmentation charge: PSQ
     Using radial grid of 1273 points,  6 beta functions with: 
                l(1) =   0
                l(2) =   0
                l(3) =   1
                l(4) =   1
                l(5) =   2
                l(6) =   2
     Q(r) pseudized with 0 coefficients 


     PseudoPot. # 2 for S  read from file:
     /home/mainadmin/research/danu/pseudo/S.pbe-n-kjpaw_psl.1.0.0.UPF
     MD5 check sum: fb45dfebcf3e72a4e1bd4a866ec2e262
     Pseudo is Projector augmented-wave + core cor, Zval =  6.0
     Generated using &quot;atomic&quot; code by A. Dal Corso  v.6.3
     Shape of augmentation charge: PSQ
     Using radial grid of 1151 points,  6 beta functions with: 
                l(1) =   0
                l(2) =   0
                l(3) =   1
                l(4) =   1
                l(5) =   2
                l(6) =   2
     Q(r) pseudized with 0 coefficients 


     PseudoPot. # 3 for Se read from file:
     /home/mainadmin/research/danu/pseudo/Se.pbe-dn-kjpaw_psl.1.0.0.UPF
     MD5 check sum: ac240dd2bae32a30e0bf3a38df9c8785
     Pseudo is Projector augmented-wave + core cor, Zval = 16.0
     Generated using &quot;atomic&quot; code by A. Dal Corso  v.6.3
     Shape of augmentation charge: PSQ
     Using radial grid of 1211 points,  6 beta functions with: 
                l(1) =   0
                l(2) =   0
                l(3) =   1
                l(4) =   1
                l(5) =   2
                l(6) =   2
     Q(r) pseudized with 0 coefficients 


     atomic species   valence    mass     pseudopotential
        W             14.00   183.84000     W ( 1.00)
        S              6.00    32.06500     S ( 1.00)
        Se            16.00    78.96000     Se( 1.00)

      6 Sym. Ops. (no inversion) found



   Cartesian axes

     site n.     atom                  positions (alat units)
         1           Se  tau(   1) = (   0.5000000   0.2886751   4.5312500  )
         2           W   tau(   2) = (  -0.0000000   0.5773503   3.9062500  )
         3           S   tau(   3) = (   0.5000000   0.2886751  -4.5312500  )

     number of k points=    52
                       cart. coord. in units 2pi/alat
        k(    1) = (   0.0000000   0.0000000   0.0000000), wk =   0.0041322
        k(    2) = (   0.0000000   0.0524864   0.0000000), wk =   0.0247934
        k(    3) = (   0.0000000   0.1049728   0.0000000), wk =   0.0247934
        k(    4) = (   0.0000000   0.1574592   0.0000000), wk =   0.0247934
        k(    5) = (   0.0000000   0.2099456   0.0000000), wk =   0.0247934
        k(    6) = (   0.0000000   0.2624319   0.0000000), wk =   0.0247934
        k(    7) = (   0.0000000   0.3149183   0.0000000), wk =   0.0247934
        k(    8) = (   0.0000000   0.3674047   0.0000000), wk =   0.0247934
        k(    9) = (   0.0000000   0.4198911   0.0000000), wk =   0.0247934
        k(   10) = (   0.0000000   0.4723775   0.0000000), wk =   0.0247934
        k(   11) = (   0.0000000   0.5248639   0.0000000), wk =   0.0247934
        k(   12) = (   0.0000000  -0.5773503   0.0000000), wk =   0.0123967
        k(   13) = (   0.0454545   0.0787296   0.0000000), wk =   0.0247934
        k(   14) = (   0.0454545   0.1312160   0.0000000), wk =   0.0495868
        k(   15) = (   0.0454545   0.1837024   0.0000000), wk =   0.0495868
        k(   16) = (   0.0454545   0.2361887   0.0000000), wk =   0.0495868
        k(   17) = (   0.0454545   0.2886751   0.0000000), wk =   0.0495868
        k(   18) = (   0.0454545   0.3411615   0.0000000), wk =   0.0495868
        k(   19) = (   0.0454545   0.3936479   0.0000000), wk =   0.0495868
        k(   20) = (   0.0454545   0.4461343   0.0000000), wk =   0.0495868
        k(   21) = (   0.0454545   0.4986207   0.0000000), wk =   0.0495868
        k(   22) = (   0.0454545   0.5511071   0.0000000), wk =   0.0495868
        k(   23) = (   0.0909091   0.1574592   0.0000000), wk =   0.0247934
        k(   24) = (   0.0909091   0.2099456   0.0000000), wk =   0.0495868
        k(   25) = (   0.0909091   0.2624319   0.0000000), wk =   0.0495868
        k(   26) = (   0.0909091   0.3149183   0.0000000), wk =   0.0495868
        k(   27) = (   0.0909091   0.3674047   0.0000000), wk =   0.0495868
        k(   28) = (   0.0909091   0.4198911   0.0000000), wk =   0.0495868
        k(   29) = (   0.0909091   0.4723775   0.0000000), wk =   0.0495868
        k(   30) = (   0.0909091   0.5248639   0.0000000), wk =   0.0495868
        k(   31) = (   0.0909091   0.5773503   0.0000000), wk =   0.0247934
        k(   32) = (   0.1363636   0.2361887   0.0000000), wk =   0.0247934
        k(   33) = (   0.1363636   0.2886751   0.0000000), wk =   0.0495868
        k(   34) = (   0.1363636   0.3411615   0.0000000), wk =   0.0495868
        k(   35) = (   0.1363636   0.3936479   0.0000000), wk =   0.0495868
        k(   36) = (   0.1363636   0.4461343   0.0000000), wk =   0.0495868
        k(   37) = (   0.1363636   0.4986207   0.0000000), wk =   0.0495868
        k(   38) = (   0.1363636   0.5511071   0.0000000), wk =   0.0495868
        k(   39) = (   0.1818182   0.3149183   0.0000000), wk =   0.0247934
        k(   40) = (   0.1818182   0.3674047   0.0000000), wk =   0.0495868
        k(   41) = (   0.1818182   0.4198911   0.0000000), wk =   0.0495868
        k(   42) = (   0.1818182   0.4723775   0.0000000), wk =   0.0495868
        k(   43) = (   0.1818182   0.5248639   0.0000000), wk =   0.0495868
        k(   44) = (   0.1818182   0.5773503   0.0000000), wk =   0.0247934
        k(   45) = (   0.2272727   0.3936479   0.0000000), wk =   0.0247934
        k(   46) = (   0.2272727   0.4461343   0.0000000), wk =   0.0495868
        k(   47) = (   0.2272727   0.4986207   0.0000000), wk =   0.0495868
        k(   48) = (   0.2272727   0.5511071   0.0000000), wk =   0.0495868
        k(   49) = (   0.2727273   0.4723775   0.0000000), wk =   0.0247934
        k(   50) = (   0.2727273   0.5248639   0.0000000), wk =   0.0495868
        k(   51) = (   0.2727273   0.5773503   0.0000000), wk =   0.0247934
        k(   52) = (   0.3181818   0.5511071   0.0000000), wk =   0.0247934

     Dense  grid:    93827 G-vectors     FFT dimensions: (  30,  30, 240)

     Estimated max dynamical RAM per process >      46.12 MB

     Estimated total dynamical RAM >     553.44 MB

     Check: negative core charge=   -0.000001

     Initial potential from superposition of free atoms

     starting charge      35.9993, renormalised to      36.0000

     negative rho (up, down):  5.774E-04 0.000E+00
     Starting wfcs are   26 randomized atomic wfcs
     Checking if some PAW data can be deallocated... 

     total cpu time spent up to now is        1.9 secs

     Self-consistent Calculation

     iteration #  1     ecut=    60.00 Ry     beta= 0.50
     Davidson diagonalization with overlap
     ethr =  1.00E-02,  avg # of iterations =  2.0

     Threshold (ethr) on eigenvalues was too large:
     Diagonalizing with lowered threshold

     Davidson diagonalization with overlap
     ethr =  4.62E-04,  avg # of iterations =  2.1

     negative rho (up, down):  1.107E-03 0.000E+00

     total cpu time spent up to now is        5.7 secs

     total energy              =   -1228.30590038 Ry
     estimated scf accuracy    <       0.16860636 Ry

     iteration #  2     ecut=    60.00 Ry     beta= 0.50
     Davidson diagonalization with overlap
     ethr =  4.68E-04,  avg # of iterations =  8.3

     negative rho (up, down):  1.392E-03 0.000E+00

     total cpu time spent up to now is        8.8 secs

     total energy              =   -1228.07884667 Ry
     estimated scf accuracy    <       4.09363264 Ry

     iteration #  3     ecut=    60.00 Ry     beta= 0.50
     Davidson diagonalization with overlap
     ethr =  4.68E-04,  avg # of iterations =  7.7

     negative rho (up, down):  4.189E-03 0.000E+00

     total cpu time spent up to now is       11.9 secs

     total energy              =   -1228.37194155 Ry
     estimated scf accuracy    <       0.05007427 Ry

     iteration #  4     ecut=    60.00 Ry     beta= 0.50
     Davidson diagonalization with overlap
     ethr =  1.39E-04,  avg # of iterations =  4.7

     negative rho (up, down):  7.758E-03 0.000E+00

     total cpu time spent up to now is       14.3 secs

     total energy              =   -1228.37516172 Ry
     estimated scf accuracy    <       0.09857469 Ry

     iteration #  5     ecut=    60.00 Ry     beta= 0.50
     Davidson diagonalization with overlap
     ethr =  1.39E-04,  avg # of iterations =  3.5

     negative rho (up, down):  1.527E-02 0.000E+00

     total cpu time spent up to now is       16.5 secs

     total energy              =   -1228.38551297 Ry
     estimated scf accuracy    <       0.01651702 Ry

     iteration #  6     ecut=    60.00 Ry     beta= 0.50
     Davidson diagonalization with overlap
     ethr =  4.59E-05,  avg # of iterations =  3.5

     negative rho (up, down):  3.831E-03 0.000E+00

     total cpu time spent up to now is       18.6 secs

     total energy              =   -1228.36965280 Ry
     estimated scf accuracy    <       0.01698957 Ry

     iteration #  7     ecut=    60.00 Ry     beta= 0.50
     Davidson diagonalization with overlap
     ethr =  4.59E-05,  avg # of iterations =  5.1

     negative rho (up, down):  7.036E-03 0.000E+00

     total cpu time spent up to now is       21.2 secs

     total energy              =   -1228.38160737 Ry
     estimated scf accuracy    <       0.03171179 Ry

     iteration #  8     ecut=    60.00 Ry     beta= 0.50
     Davidson diagonalization with overlap
     ethr =  4.59E-05,  avg # of iterations =  2.0

     negative rho (up, down):  1.769E-03 0.000E+00

     total cpu time spent up to now is       23.2 secs

     total energy              =   -1228.37757038 Ry
     estimated scf accuracy    <       0.02335561 Ry

     iteration #  9     ecut=    60.00 Ry     beta= 0.50
     Davidson diagonalization with overlap
     ethr =  4.59E-05,  avg # of iterations =  2.0

     negative rho (up, down):  8.065E-04 0.000E+00

     total cpu time spent up to now is       25.3 secs

     total energy              =   -1228.37772611 Ry
     estimated scf accuracy    <       0.01091015 Ry

     iteration # 10     ecut=    60.00 Ry     beta= 0.50
     Davidson diagonalization with overlap
     ethr =  3.03E-05,  avg # of iterations =  3.8

     negative rho (up, down):  7.583E-04 0.000E+00

     total cpu time spent up to now is       27.4 secs

     total energy              =   -1228.37913500 Ry
     estimated scf accuracy    <       0.00057382 Ry

     iteration # 11     ecut=    60.00 Ry     beta= 0.50
     Davidson diagonalization with overlap
     ethr =  1.59E-06,  avg # of iterations =  5.5

     negative rho (up, down):  7.583E-04 0.000E+00

     total cpu time spent up to now is       30.1 secs

     total energy              =   -1228.37912881 Ry
     estimated scf accuracy    <       0.00092859 Ry

     iteration # 12     ecut=    60.00 Ry     beta= 0.50
     Davidson diagonalization with overlap
     ethr =  1.59E-06,  avg # of iterations =  4.3

     negative rho (up, down):  7.478E-04 0.000E+00

     total cpu time spent up to now is       32.4 secs

     total energy              =   -1228.37927670 Ry
     estimated scf accuracy    <       0.00010744 Ry

     iteration # 13     ecut=    60.00 Ry     beta= 0.50
     Davidson diagonalization with overlap
     ethr =  2.98E-07,  avg # of iterations =  2.0

     negative rho (up, down):  7.423E-04 0.000E+00

     total cpu time spent up to now is       34.3 secs

     total energy              =   -1228.37926376 Ry
     estimated scf accuracy    <       0.00006462 Ry

     iteration # 14     ecut=    60.00 Ry     beta= 0.50
     Davidson diagonalization with overlap
     ethr =  1.80E-07,  avg # of iterations =  4.1

     negative rho (up, down):  7.457E-04 0.000E+00

     total cpu time spent up to now is       36.6 secs

     total energy              =   -1228.37927985 Ry
     estimated scf accuracy    <       0.00002047 Ry

     iteration # 15     ecut=    60.00 Ry     beta= 0.50
     Davidson diagonalization with overlap
     ethr =  5.69E-08,  avg # of iterations =  1.6

     negative rho (up, down):  7.463E-04 0.000E+00

     total cpu time spent up to now is       38.5 secs

     total energy              =   -1228.37927894 Ry
     estimated scf accuracy    <       0.00001613 Ry

     iteration # 16     ecut=    60.00 Ry     beta= 0.50
     Davidson diagonalization with overlap
     ethr =  4.48E-08,  avg # of iterations =  1.6

     negative rho (up, down):  7.470E-04 0.000E+00

     total cpu time spent up to now is       40.3 secs

     total energy              =   -1228.37927772 Ry
     estimated scf accuracy    <       0.00000951 Ry

     iteration # 17     ecut=    60.00 Ry     beta= 0.50
     Davidson diagonalization with overlap
     ethr =  2.64E-08,  avg # of iterations =  3.8

     negative rho (up, down):  7.462E-04 0.000E+00

     total cpu time spent up to now is       42.5 secs

     total energy              =   -1228.37927898 Ry
     estimated scf accuracy    <       0.00000025 Ry

     iteration # 18     ecut=    60.00 Ry     beta= 0.50
     Davidson diagonalization with overlap
     ethr =  6.98E-10,  avg # of iterations =  6.7

     negative rho (up, down):  7.453E-04 0.000E+00

     total cpu time spent up to now is       45.5 secs

     total energy              =   -1228.37927914 Ry
     estimated scf accuracy    <       0.00000052 Ry

     iteration # 19     ecut=    60.00 Ry     beta= 0.50
     Davidson diagonalization with overlap
     ethr =  6.98E-10,  avg # of iterations =  1.3

     negative rho (up, down):  7.466E-04 0.000E+00

     total cpu time spent up to now is       47.2 secs

     total energy              =   -1228.37927910 Ry
     estimated scf accuracy    <       0.00000047 Ry

     iteration # 20     ecut=    60.00 Ry     beta= 0.50
     Davidson diagonalization with overlap
     ethr =  6.98E-10,  avg # of iterations =  1.7

     negative rho (up, down):  7.463E-04 0.000E+00

     total cpu time spent up to now is       49.1 secs

     total energy              =   -1228.37927899 Ry
     estimated scf accuracy    <       0.00000030 Ry

     iteration # 21     ecut=    60.00 Ry     beta= 0.50
     Davidson diagonalization with overlap
     ethr =  6.98E-10,  avg # of iterations =  6.4

     negative rho (up, down):  7.464E-04 0.000E+00

     total cpu time spent up to now is       51.8 secs

     total energy              =   -1228.37927906 Ry
     estimated scf accuracy    <       0.00000086 Ry

     iteration # 22     ecut=    60.00 Ry     beta= 0.50
     Davidson diagonalization with overlap
     ethr =  6.98E-10,  avg # of iterations =  3.8

     negative rho (up, down):  7.466E-04 0.000E+00

     total cpu time spent up to now is       54.0 secs

     total energy              =   -1228.37927907 Ry
     estimated scf accuracy    <       0.00000014 Ry

     iteration # 23     ecut=    60.00 Ry     beta= 0.50
     Davidson diagonalization with overlap
     ethr =  4.02E-10,  avg # of iterations =  5.1

     negative rho (up, down):  7.466E-04 0.000E+00

     total cpu time spent up to now is       56.5 secs

     total energy              =   -1228.37927910 Ry
     estimated scf accuracy    <       0.00000004 Ry

     iteration # 24     ecut=    60.00 Ry     beta= 0.50
     Davidson diagonalization with overlap
     ethr =  1.09E-10,  avg # of iterations =  1.6

     negative rho (up, down):  7.466E-04 0.000E+00

     total cpu time spent up to now is       58.3 secs

     total energy              =   -1228.37927910 Ry
     estimated scf accuracy    <       0.00000004 Ry

     iteration # 25     ecut=    60.00 Ry     beta= 0.50
     Davidson diagonalization with overlap
     ethr =  9.77E-11,  avg # of iterations =  3.1

     negative rho (up, down):  7.468E-04 0.000E+00

     total cpu time spent up to now is       60.4 secs

     End of self-consistent calculation

          k = 0.0000 0.0000 0.0000 ( 11811 PWs)   bands (ev):

   -75.2382 -48.4207 -48.4207 -48.4174 -48.4159 -48.4159 -39.4089 -39.1503
   -39.1503 -14.9932 -13.8031  -6.8568  -3.7196  -2.1970  -1.8502  -1.8502
    -0.7804  -0.7804

          k = 0.0000 0.0525 0.0000 ( 11811 PWs)   bands (ev):

   -75.2379 -48.4208 -48.4206 -48.4173 -48.4160 -48.4159 -39.4080 -39.1558
   -39.1517 -14.9637 -13.7803  -6.8103  -3.7263  -2.1782  -1.9438  -1.8165
    -0.8552  -0.8348

          k = 0.0000 0.1050 0.0000 ( 11793 PWs)   bands (ev):

   -75.2371 -48.4208 -48.4203 -48.4171 -48.4161 -48.4159 -39.4056 -39.1718
   -39.1555 -14.8760 -13.7125  -6.6735  -3.7473  -2.2157  -2.1224  -1.7190
    -1.0876  -0.9839

          k = 0.0000 0.1575 0.0000 ( 11797 PWs)   bands (ev):

   -75.2358 -48.4209 -48.4198 -48.4168 -48.4162 -48.4159 -39.4017 -39.1969
   -39.1616 -14.7331 -13.6020  -6.4547  -3.7867  -2.6223  -2.0580  -1.5685
    -1.4778  -1.1955

          k = 0.0000 0.2099 0.0000 ( 11815 PWs)   bands (ev):

   -75.2342 -48.4210 -48.4192 -48.4167 -48.4163 -48.4159 -39.3968 -39.2290
   -39.1694 -14.5401 -13.4530  -6.1696  -3.8560  -3.1288  -2.0448  -1.9480
    -1.4402  -1.3822

          k = 0.0000 0.2624 0.0000 ( 11779 PWs)   bands (ev):

   -75.2323 -48.4210 -48.4185 -48.4169 -48.4158 -48.4157 -39.3911 -39.2654
   -39.1783 -14.3051 -13.2719  -5.8458  -4.0014  -3.6664  -2.5208  -2.0149
    -1.6835  -1.2002

          k = 0.0000 0.3149 0.0000 ( 11763 PWs)   bands (ev):

   -75.2303 -48.4212 -48.4179 -48.4171 -48.4156 -48.4152 -39.3853 -39.3032
   -39.1875 -14.0396 -13.0676  -5.5373  -4.3954  -4.0447  -2.9628  -2.0939
    -1.9139  -1.0527

          k = 0.0000 0.3674 0.0000 ( 11757 PWs)   bands (ev):

   -75.2285 -48.4214 -48.4175 -48.4174 -48.4152 -48.4146 -39.3796 -39.3391
   -39.1963 -13.7601 -12.8531  -5.4119  -4.8286  -4.3344  -3.2443  -2.1703
    -2.1163  -0.9671

          k = 0.0000 0.4199 0.0000 ( 11765 PWs)   bands (ev):

   -75.2268 -48.4215 -48.4177 -48.4174 -48.4148 -48.4141 -39.3749 -39.3703
   -39.2041 -13.4897 -12.6456  -5.7372  -4.9963  -4.5104  -3.3888  -2.2816
    -2.1781  -0.9388

          k = 0.0000 0.4724 0.0000 ( 11733 PWs)   bands (ev):

   -75.2255 -48.4217 -48.4179 -48.4173 -48.4143 -48.4136 -39.3949 -39.3707
   -39.2101 -13.2583 -12.4674  -6.1502  -5.2273  -4.4856  -3.4596  -2.4036
    -2.1068  -0.9433

          k = 0.0000 0.5249 0.0000 ( 11707 PWs)   bands (ev):

   -75.2247 -48.4217 -48.4180 -48.4172 -48.4140 -48.4133 -39.4102 -39.3683
   -39.2139 -13.0999 -12.3445  -6.4398  -5.4214  -4.4446  -3.4926  -2.4783
    -2.0116  -0.9559

          k = 0.0000-0.5774 0.0000 ( 11704 PWs)   bands (ev):

   -75.2244 -48.4217 -48.4180 -48.4172 -48.4138 -48.4132 -39.4155 -39.3675
   -39.2152 -13.0432 -12.3003  -6.5430  -5.4927  -4.4315  -3.5023  -2.5035
    -1.9683  -0.9618

          k = 0.0455 0.0787 0.0000 ( 11795 PWs)   bands (ev):

   -75.2374 -48.4208 -48.4204 -48.4171 -48.4160 -48.4159 -39.4064 -39.1665
   -39.1543 -14.9050 -13.7349  -6.7186  -3.7400  -2.1504  -2.1159  -1.7519
    -1.0161  -0.9293

          k = 0.0455 0.1312 0.0000 ( 11791 PWs)   bands (ev):

   -75.2363 -48.4208 -48.4200 -48.4169 -48.4162 -48.4159 -39.4032 -39.1868
   -39.1595 -14.7897 -13.6458  -6.5405  -3.7690  -2.4606  -2.0802  -1.6317
    -1.3399  -1.0989

          k = 0.0455 0.1837 0.0000 ( 11816 PWs)   bands (ev):

   -75.2349 -48.4209 -48.4195 -48.4166 -48.4164 -48.4159 -39.3988 -39.2151
   -39.1668 -14.6217 -13.5160  -6.2872  -3.8188  -2.9129  -2.0251  -1.7947
    -1.4726  -1.3192

          k = 0.0455 0.2362 0.0000 ( 11795 PWs)   bands (ev):

   -75.2331 -48.4210 -48.4189 -48.4167 -48.4161 -48.4158 -39.3935 -39.2489
   -39.1756 -14.4075 -13.3507  -5.9791  -3.9096  -3.4360  -2.3319  -2.0004
    -1.5637  -1.2982

          k = 0.0455 0.2887 0.0000 ( 11784 PWs)   bands (ev):

   -75.2312 -48.4211 -48.4183 -48.4170 -48.4159 -48.4153 -39.3878 -39.2855
   -39.1851 -14.1568 -13.1576  -5.6529  -4.1584  -3.8989  -2.8242  -2.0647
    -1.8063  -1.1429

          k = 0.0455 0.3412 0.0000 ( 11761 PWs)   bands (ev):

   -75.2293 -48.4212 -48.4177 -48.4173 -48.4156 -48.4147 -39.3820 -39.3219
   -39.1945 -13.8833 -12.9474  -5.3959  -4.6424  -4.1864  -3.1808  -2.1669
    -2.0292  -1.0411

          k = 0.0455 0.3936 0.0000 ( 11756 PWs)   bands (ev):

   -75.2275 -48.4213 -48.4176 -48.4174 -48.4151 -48.4142 -39.3768 -39.3552
   -39.2032 -13.6067 -12.7350  -5.5078  -4.9050  -4.4481  -3.3690  -2.2647
    -2.1879  -1.0049

          k = 0.0455 0.4461 0.0000 ( 11732 PWs)   bands (ev):

   -75.2260 -48.4215 -48.4178 -48.4173 -48.4146 -48.4137 -39.3828 -39.3722
   -39.2105 -13.3534 -12.5403  -5.9289  -5.0861  -4.4983  -3.4529  -2.4048
    -2.1834  -1.0108

          k = 0.0455 0.4986 0.0000 ( 11716 PWs)   bands (ev):

   -75.2250 -48.4216 -48.4179 -48.4173 -48.4142 -48.4134 -39.4023 -39.3691
   -39.2156 -13.1558 -12.3875  -6.2892  -5.3182  -4.4463  -3.4880  -2.5151
    -2.1037  -1.0281

          k = 0.0455 0.5511 0.0000 ( 11688 PWs)   bands (ev):

   -75.2244 -48.4216 -48.4180 -48.4172 -48.4139 -48.4132 -39.4125 -39.3675
   -39.2183 -13.0465 -12.3022  -6.4887  -5.4562  -4.4177  -3.5002  -2.5732
    -2.0344  -1.0392

          k = 0.0909 0.1575 0.0000 ( 11813 PWs)   bands (ev):

   -75.2351 -48.4209 -48.4197 -48.4166 -48.4164 -48.4159 -39.3995 -39.2099
   -39.1663 -14.6492 -13.5372  -6.3270  -3.8053  -2.8334  -2.0272  -1.7471
    -1.5097  -1.2643

          k = 0.0909 0.2099 0.0000 ( 11795 PWs)   bands (ev):

   -75.2335 -48.4208 -48.4191 -48.4166 -48.4163 -48.4157 -39.3948 -39.2391
   -39.1753 -14.4597 -13.3909  -6.0471  -3.8615  -3.2957  -2.2525  -2.0002
    -1.4755  -1.3744

          k = 0.0909 0.2624 0.0000 ( 11777 PWs)   bands (ev):

   -75.2317 -48.4209 -48.4186 -48.4169 -48.4161 -48.4153 -39.3894 -39.2723
   -39.1856 -14.2292 -13.2131  -5.7257  -3.9880  -3.7774  -2.7703  -2.0550
    -1.7126  -1.2443

          k = 0.0909 0.3149 0.0000 ( 11770 PWs)   bands (ev):

   -75.2298 -48.4209 -48.4181 -48.4171 -48.4159 -48.4148 -39.3837 -39.3066
   -39.1963 -13.9692 -13.0129  -5.4125  -4.4184  -4.0440  -3.1989  -2.1819
    -1.9536  -1.1519

          k = 0.0909 0.3674 0.0000 ( 11775 PWs)   bands (ev):

   -75.2280 -48.4210 -48.4177 -48.4174 -48.4156 -48.4142 -39.3783 -39.3393
   -39.2066 -13.6962 -12.8029  -5.2918  -4.8121  -4.3136  -3.4350  -2.3245
    -2.1703  -1.1282

          k = 0.0909 0.4199 0.0000 ( 11742 PWs)   bands (ev):

   -75.2264 -48.4211 -48.4176 -48.4175 -48.4151 -48.4138 -39.3737 -39.3677
   -39.2156 -13.4328 -12.6003  -5.6487  -4.9167  -4.4854  -3.5149  -2.4726
    -2.2943  -1.1495

          k = 0.0909 0.4724 0.0000 ( 11724 PWs)   bands (ev):

   -75.2252 -48.4212 -48.4178 -48.4174 -48.4146 -48.4134 -39.3901 -39.3698
   -39.2226 -13.2083 -12.4268  -6.0531  -5.1538  -4.4336  -3.5248  -2.6309
    -2.2956  -1.1721

          k = 0.0909 0.5249 0.0000 ( 11685 PWs)   bands (ev):

   -75.2244 -48.4212 -48.4179 -48.4173 -48.4142 -48.4133 -39.4040 -39.3675
   -39.2270 -13.0551 -12.3074  -6.3316  -5.3497  -4.3820  -3.5105  -2.7481
    -2.2527  -1.1777

          k = 0.0909 0.5774 0.0000 ( 11658 PWs)   bands (ev):

   -75.2242 -48.4212 -48.4179 -48.4173 -48.4140 -48.4132 -39.4088 -39.3667
   -39.2286 -13.0004 -12.2645  -6.4304  -5.4207  -4.3666  -3.5012  -2.7918
    -2.2309  -1.1759

          k = 0.1364 0.2362 0.0000 ( 11785 PWs)   bands (ev):

   -75.2319 -48.4208 -48.4188 -48.4168 -48.4162 -48.4153 -39.3899 -39.2672
   -39.1863 -14.2537 -13.2318  -5.7504  -3.9259  -3.7278  -2.7612  -2.0533
    -1.6733  -1.2874

          k = 0.1364 0.2887 0.0000 ( 11771 PWs)   bands (ev):

   -75.2301 -48.4207 -48.4184 -48.4170 -48.4162 -48.4148 -39.3846 -39.2971
   -39.1987 -14.0132 -13.0464  -5.4262  -4.2567  -3.9533  -3.2531  -2.1987
    -1.9033  -1.2232

          k = 0.1364 0.3412 0.0000 ( 11768 PWs)   bands (ev):

   -75.2284 -48.4207 -48.4180 -48.4172 -48.4160 -48.4143 -39.3793 -39.3267
   -39.2113 -13.7522 -12.8452  -5.1538  -4.7082  -4.1390  -3.5857  -2.3959
    -2.1456  -1.2179

          k = 0.1364 0.3936 0.0000 ( 11749 PWs)   bands (ev):

   -75.2267 -48.4207 -48.4177 -48.4174 -48.4157 -48.4138 -39.3745 -39.3535
   -39.2231 -13.4897 -12.6428  -5.3485  -4.7838  -4.4219  -3.6757  -2.5879
    -2.3706  -1.2539

          k = 0.1364 0.4461 0.0000 ( 11714 PWs)   bands (ev):

   -75.2254 -48.4207 -48.4177 -48.4175 -48.4152 -48.4135 -39.3758 -39.3702
   -39.2329 -13.2511 -12.4582  -5.7631  -4.9431  -4.4287  -3.6537  -2.7660
    -2.5280  -1.2744

          k = 0.1364 0.4986 0.0000 ( 11699 PWs)   bands (ev):

   -75.2244 -48.4207 -48.4177 -48.4175 -48.4147 -48.4133 -39.3915 -39.3675
   -39.2400 -13.0663 -12.3141  -6.0915  -5.1839  -4.3421  -3.5885  -2.9415
    -2.5925  -1.2582

          k = 0.1364 0.5511 0.0000 ( 11685 PWs)   bands (ev):

   -75.2239 -48.4207 -48.4178 -48.4175 -48.4144 -48.4133 -39.3996 -39.3660
   -39.2437 -12.9646 -12.2342  -6.2712  -5.3203  -4.3037  -3.5212  -3.0692
    -2.6075  -1.2315

          k = 0.1818 0.3149 0.0000 ( 11755 PWs)   bands (ev):

   -75.2285 -48.4204 -48.4182 -48.4171 -48.4162 -48.4142 -39.3797 -39.3216
   -39.2136 -13.7712 -12.8596  -5.1118  -4.6541  -4.0196  -3.7048  -2.4300
    -2.1329  -1.2458

          k = 0.1818 0.3674 0.0000 ( 11735 PWs)   bands (ev):

   -75.2269 -48.4203 -48.4179 -48.4172 -48.4160 -48.4138 -39.3749 -39.3441
   -39.2289 -13.5194 -12.6649  -5.1043  -4.7775  -4.2711  -3.8860  -2.6967
    -2.3859  -1.2957

          k = 0.1818 0.4199 0.0000 ( 11721 PWs)   bands (ev):

   -75.2255 -48.4202 -48.4178 -48.4174 -48.4157 -48.4135 -39.3709 -39.3631
   -39.2429 -13.2790 -12.4784  -5.4845  -4.7200  -4.4554  -3.8586  -2.9403
    -2.6387  -1.3142

          k = 0.1818 0.4724 0.0000 ( 11728 PWs)   bands (ev):

   -75.2244 -48.4202 -48.4178 -48.4175 -48.4153 -48.4134 -39.3777 -39.3674
   -39.2541 -13.0765 -12.3202  -5.8123  -4.9853  -4.3251  -3.7756  -3.1312
    -2.8606  -1.2768

          k = 0.1818 0.5249 0.0000 ( 11676 PWs)   bands (ev):

   -75.2237 -48.4202 -48.4177 -48.4175 -48.4148 -48.4134 -39.3866 -39.3654
   -39.2614 -12.9398 -12.2124  -6.0342  -5.1735  -4.2526  -3.6571  -3.2892
    -3.0078  -1.2145

          k = 0.1818 0.5774 0.0000 ( 11684 PWs)   bands (ev):

   -75.2235 -48.4202 -48.4177 -48.4175 -48.4146 -48.4135 -39.3897 -39.3647
   -39.2639 -12.8913 -12.1739  -6.1129  -5.2392  -4.2340  -3.5621  -3.3962
    -3.0546  -1.1842

          k = 0.2273 0.3936 0.0000 ( 11717 PWs)   bands (ev):

   -75.2256 -48.4200 -48.4179 -48.4172 -48.4160 -48.4135 -39.3709 -39.3579
   -39.2473 -13.2887 -12.4854  -5.3536  -4.5938  -4.4878  -3.9842  -3.0302
    -2.6555  -1.3215

          k = 0.2273 0.4461 0.0000 ( 11719 PWs)   bands (ev):

   -75.2244 -48.4198 -48.4179 -48.4172 -48.4157 -48.4134 -39.3684 -39.3668
   -39.2643 -13.0825 -12.3237  -5.5934  -4.8252  -4.3380  -3.9679  -3.3221
    -2.9260  -1.2712

          k = 0.2273 0.4986 0.0000 ( 11698 PWs)   bands (ev):

   -75.2236 -48.4197 -48.4179 -48.4172 -48.4154 -48.4134 -39.3734 -39.3650
   -39.2777 -12.9255 -12.1995  -5.7791  -5.0319  -4.2340  -3.8966  -3.5099
    -3.1724  -1.1748

          k = 0.2273 0.5511 0.0000 ( 11679 PWs)   bands (ev):

   -75.2232 -48.4196 -48.4179 -48.4172 -48.4151 -48.4136 -39.3758 -39.3638
   -39.2851 -12.8402 -12.1314  -5.8820  -5.1412  -4.2120  -3.8073  -3.5768
    -3.3558  -1.0978

          k = 0.2727 0.4724 0.0000 ( 11714 PWs)   bands (ev):

   -75.2236 -48.4195 -48.4181 -48.4170 -48.4157 -48.4135 -39.3672 -39.3648
   -39.2850 -12.9209 -12.1952  -5.6501  -4.9788  -4.2159  -4.0387  -3.6225
    -3.1891  -1.1549

          k = 0.2727 0.5249 0.0000 ( 11695 PWs)   bands (ev):

   -75.2231 -48.4192 -48.4181 -48.4168 -48.4156 -48.4136 -39.3636 -39.3629
   -39.3017 -12.8140 -12.1095  -5.6612  -5.1031  -4.2400  -4.0130  -3.7603
    -3.3931  -1.0310

          k = 0.2727 0.5774 0.0000 ( 11678 PWs)   bands (ev):

   -75.2229 -48.4191 -48.4182 -48.4167 -48.4154 -48.4137 -39.3628 -39.3605
   -39.3087 -12.7765 -12.0792  -5.6571  -5.1524  -4.2949  -3.9523  -3.8018
    -3.4782  -0.9773

          k = 0.3182 0.5511 0.0000 ( 11690 PWs)   bands (ev):

   -75.2228 -48.4189 -48.4183 -48.4164 -48.4158 -48.4138 -39.3625 -39.3487
   -39.3233 -12.7546 -12.0612  -5.4839  -5.2355  -4.3590  -4.0016  -3.8837
    -3.4970  -0.9250

     highest occupied level (ev):    -0.7804

!    total energy              =   -1228.37927910 Ry
     total all-electron energy =    -37944.469710 Ry
     estimated scf accuracy    <          2.3E-09 Ry

     The total energy is the sum of the following terms:
     one-electron contribution =   -2749.50620609 Ry
     hartree contribution      =    1372.31442782 Ry
     xc contribution           =     -73.23288383 Ry
     ewald contribution        =    1014.62638954 Ry
     one-center paw contrib.   =    -792.58100654 Ry

     convergence has been achieved in  25 iterations

     Writing all to output data dir ./work/WSSe.save/

     init_run     :      1.52s CPU      1.63s WALL (       1 calls)
     electrons    :     54.70s CPU     58.52s WALL (       1 calls)

     Called by init_run:
     wfcinit      :      0.83s CPU      0.90s WALL (       1 calls)
     potinit      :      0.16s CPU      0.17s WALL (       1 calls)
     hinit0       :      0.44s CPU      0.44s WALL (       1 calls)

     Called by electrons:
     c_bands      :     43.87s CPU     46.97s WALL (      26 calls)
     sum_band     :      7.50s CPU      8.15s WALL (      26 calls)
     v_of_rho     :      0.15s CPU      0.16s WALL (      26 calls)
     newd         :      1.84s CPU      1.86s WALL (      26 calls)
     PAW_pot      :      1.35s CPU      1.39s WALL (      26 calls)
     mix_rho      :      0.08s CPU      0.09s WALL (      26 calls)

     Called by c_bands:
     init_us_2    :      0.75s CPU      0.80s WALL (    2756 calls)
     init_us_2:cp :      0.75s CPU      0.80s WALL (    2756 calls)
     cegterg      :     41.72s CPU     44.77s WALL (    1352 calls)

     Called by *egterg:
     cdiaghg      :      1.61s CPU      1.68s WALL (    6349 calls)
     h_psi        :     27.33s CPU     29.95s WALL (    6453 calls)
     s_psi        :      3.51s CPU      3.70s WALL (    6453 calls)
     g_psi        :      0.14s CPU      0.14s WALL (    5049 calls)

     Called by h_psi:
     h_psi:calbec :      3.62s CPU      4.04s WALL (    6453 calls)
     vloc_psi     :     20.16s CPU     22.08s WALL (    6453 calls)
     add_vuspsi   :      3.46s CPU      3.75s WALL (    6453 calls)

     General routines
     calbec       :      4.90s CPU      5.48s WALL (    7805 calls)
     fft          :      0.33s CPU      0.34s WALL (     287 calls)
     ffts         :      0.01s CPU      0.01s WALL (      26 calls)
     fftw         :     22.05s CPU     24.20s WALL (  153382 calls)

     Parallel routines

     PWSCF        :     56.52s CPU   1m 0.58s WALL


   This run was terminated on:  11:17:24  30Jan2023            

=------------------------------------------------------------------------------=
   JOB DONE.
=------------------------------------------------------------------------------=
