
     Program PWSCF v.7.1 starts on 30Jan2023 at 11:15:19 

     This program is part of the open-source Quantum ESPRESSO suite
     for quantum simulation of materials; please cite
         "P. Giannozzi et al., J. Phys.:Condens. Matter 21 395502 (2009);
         "P. Giannozzi et al., J. Phys.:Condens. Matter 29 465901 (2017);
         "P. Giannozzi et al., J. Chem. Phys. 152 154105 (2020);
          URL http://www.quantum-espresso.org", 
     in publications or presentations arising from this work. More details at
     http://www.quantum-espresso.org/quote

     Parallel version (MPI), running on    12 processors

     MPI processes distributed on     1 nodes
     122124 MiB available memory on the printing compute node when the environment starts

     Waiting for input...
     Reading input from standard input

     Current dimensions of program PWSCF are:
     Max number of different atomic species (ntypx) = 10
     Max number of k-points (npk) =  40000
     Max angular momentum in pseudopotentials (lmaxx) =  4
     file W.pbe-spn-kjpaw_psl.1.0.0.UPF: wavefunction(s)  6S 5P 5D renormalized
     file S.pbe-n-kjpaw_psl.1.0.0.UPF: wavefunction(s)  3S 3P renormalized
     file Se.pbe-dn-kjpaw_psl.1.0.0.UPF: wavefunction(s)  4S 4P 3D renormalized
     Message from routine setup:
     using ibrav=0 with symmetry is DISCOURAGED, use correct ibrav instead

     R & G space division:  proc/nbgrp/npool/nimage =      12
     Subspace diagonalization in iterative solution of the eigenvalue problem:
     a serial algorithm will be used


     Parallelization info
     --------------------
     sticks:   dense  smooth     PW     G-vecs:    dense   smooth      PW
     Min          49      49     15                 7805     7805    1255
     Max          50      50     16                 7840     7840    1268
     Sum         595     595    187                93827    93827   15121

     Using Slab Decomposition



     bravais-lattice index     =            0
     lattice parameter (alat)  =       6.0471  a.u.
     unit-cell volume          =    1496.1227 (a.u.)^3
     number of atoms/cell      =            3
     number of atomic types    =            3
     number of electrons       =        36.00
     number of Kohn-Sham states=           18
     kinetic-energy cutoff     =      60.0000  Ry
     charge density cutoff     =     240.0000  Ry
     scf convergence threshold =      1.0E-08
     mixing beta               =       0.5000
     number of iterations used =            8  plain     mixing
     Exchange-correlation= SLA  PW   PBX  PBC
                           (   1   4   3   4   0   0   0)

     celldm(1)=   6.047124  celldm(2)=   0.000000  celldm(3)=   0.000000
     celldm(4)=   0.000000  celldm(5)=   0.000000  celldm(6)=   0.000000

     crystal axes: (cart. coord. in units of alat)
               a(1) = (   1.000000   0.000000   0.000000 )  
               a(2) = (  -0.500000   0.866025   0.000000 )  
               a(3) = (   0.000000   0.000000   7.812500 )  

     reciprocal axes: (cart. coord. in units 2 pi/alat)
               b(1) = (  1.000000  0.577350 -0.000000 )  
               b(2) = (  0.000000  1.154701  0.000000 )  
               b(3) = (  0.000000 -0.000000  0.128000 )  


     PseudoPot. # 1 for W  read from file:
     /home/mainadmin/research/danu/pseudo/W.pbe-spn-kjpaw_psl.1.0.0.UPF
     MD5 check sum: 03c3df5b60893f488392c7401945500a
     Pseudo is Projector augmented-wave + core cor, Zval = 14.0
     Generated using &quot;atomic&quot; code by A. Dal Corso  v.6.2.2
     Shape of augmentation charge: PSQ
     Using radial grid of 1273 points,  6 beta functions with: 
                l(1) =   0
                l(2) =   0
                l(3) =   1
                l(4) =   1
                l(5) =   2
                l(6) =   2
     Q(r) pseudized with 0 coefficients 


     PseudoPot. # 2 for S  read from file:
     /home/mainadmin/research/danu/pseudo/S.pbe-n-kjpaw_psl.1.0.0.UPF
     MD5 check sum: fb45dfebcf3e72a4e1bd4a866ec2e262
     Pseudo is Projector augmented-wave + core cor, Zval =  6.0
     Generated using &quot;atomic&quot; code by A. Dal Corso  v.6.3
     Shape of augmentation charge: PSQ
     Using radial grid of 1151 points,  6 beta functions with: 
                l(1) =   0
                l(2) =   0
                l(3) =   1
                l(4) =   1
                l(5) =   2
                l(6) =   2
     Q(r) pseudized with 0 coefficients 


     PseudoPot. # 3 for Se read from file:
     /home/mainadmin/research/danu/pseudo/Se.pbe-dn-kjpaw_psl.1.0.0.UPF
     MD5 check sum: ac240dd2bae32a30e0bf3a38df9c8785
     Pseudo is Projector augmented-wave + core cor, Zval = 16.0
     Generated using &quot;atomic&quot; code by A. Dal Corso  v.6.3
     Shape of augmentation charge: PSQ
     Using radial grid of 1211 points,  6 beta functions with: 
                l(1) =   0
                l(2) =   0
                l(3) =   1
                l(4) =   1
                l(5) =   2
                l(6) =   2
     Q(r) pseudized with 0 coefficients 


     atomic species   valence    mass     pseudopotential
        W             14.00   183.84000     W ( 1.00)
        S              6.00    32.06500     S ( 1.00)
        Se            16.00    78.96000     Se( 1.00)

      6 Sym. Ops. (no inversion) found



   Cartesian axes

     site n.     atom                  positions (alat units)
         1           Se  tau(   1) = (   0.5000000   0.2886751   4.5312500  )
         2           W   tau(   2) = (  -0.0000000   0.5773503   3.9062500  )
         3           S   tau(   3) = (   0.5000000   0.2886751  -4.5312500  )

     number of k points=    48
                       cart. coord. in units 2pi/alat
        k(    1) = (   0.0000000   0.0000000   0.0000000), wk =   0.0045351
        k(    2) = (   0.0000000   0.0549857   0.0000000), wk =   0.0272109
        k(    3) = (   0.0000000   0.1099715   0.0000000), wk =   0.0272109
        k(    4) = (   0.0000000   0.1649572   0.0000000), wk =   0.0272109
        k(    5) = (   0.0000000   0.2199430   0.0000000), wk =   0.0272109
        k(    6) = (   0.0000000   0.2749287   0.0000000), wk =   0.0272109
        k(    7) = (   0.0000000   0.3299144   0.0000000), wk =   0.0272109
        k(    8) = (   0.0000000   0.3849002   0.0000000), wk =   0.0272109
        k(    9) = (   0.0000000   0.4398859   0.0000000), wk =   0.0272109
        k(   10) = (   0.0000000   0.4948717   0.0000000), wk =   0.0272109
        k(   11) = (   0.0000000   0.5498574   0.0000000), wk =   0.0272109
        k(   12) = (   0.0476190   0.0824786   0.0000000), wk =   0.0272109
        k(   13) = (   0.0476190   0.1374643   0.0000000), wk =   0.0544218
        k(   14) = (   0.0476190   0.1924501   0.0000000), wk =   0.0544218
        k(   15) = (   0.0476190   0.2474358   0.0000000), wk =   0.0544218
        k(   16) = (   0.0476190   0.3024216   0.0000000), wk =   0.0544218
        k(   17) = (   0.0476190   0.3574073   0.0000000), wk =   0.0544218
        k(   18) = (   0.0476190   0.4123930   0.0000000), wk =   0.0544218
        k(   19) = (   0.0476190   0.4673788   0.0000000), wk =   0.0544218
        k(   20) = (   0.0476190   0.5223645   0.0000000), wk =   0.0544218
        k(   21) = (   0.0476190   0.5773503   0.0000000), wk =   0.0272109
        k(   22) = (   0.0952381   0.1649572   0.0000000), wk =   0.0272109
        k(   23) = (   0.0952381   0.2199430   0.0000000), wk =   0.0544218
        k(   24) = (   0.0952381   0.2749287   0.0000000), wk =   0.0544218
        k(   25) = (   0.0952381   0.3299144   0.0000000), wk =   0.0544218
        k(   26) = (   0.0952381   0.3849002   0.0000000), wk =   0.0544218
        k(   27) = (   0.0952381   0.4398859   0.0000000), wk =   0.0544218
        k(   28) = (   0.0952381   0.4948717   0.0000000), wk =   0.0544218
        k(   29) = (   0.0952381   0.5498574   0.0000000), wk =   0.0544218
        k(   30) = (   0.1428571   0.2474358   0.0000000), wk =   0.0272109
        k(   31) = (   0.1428571   0.3024216   0.0000000), wk =   0.0544218
        k(   32) = (   0.1428571   0.3574073   0.0000000), wk =   0.0544218
        k(   33) = (   0.1428571   0.4123930   0.0000000), wk =   0.0544218
        k(   34) = (   0.1428571   0.4673788   0.0000000), wk =   0.0544218
        k(   35) = (   0.1428571   0.5223645   0.0000000), wk =   0.0544218
        k(   36) = (   0.1428571   0.5773503   0.0000000), wk =   0.0272109
        k(   37) = (   0.1904762   0.3299144   0.0000000), wk =   0.0272109
        k(   38) = (   0.1904762   0.3849002   0.0000000), wk =   0.0544218
        k(   39) = (   0.1904762   0.4398859   0.0000000), wk =   0.0544218
        k(   40) = (   0.1904762   0.4948717   0.0000000), wk =   0.0544218
        k(   41) = (   0.1904762   0.5498574   0.0000000), wk =   0.0544218
        k(   42) = (   0.2380952   0.4123930   0.0000000), wk =   0.0272109
        k(   43) = (   0.2380952   0.4673788   0.0000000), wk =   0.0544218
        k(   44) = (   0.2380952   0.5223645   0.0000000), wk =   0.0544218
        k(   45) = (   0.2380952   0.5773503   0.0000000), wk =   0.0272109
        k(   46) = (   0.2857143   0.4948717   0.0000000), wk =   0.0272109
        k(   47) = (   0.2857143   0.5498574   0.0000000), wk =   0.0544218
        k(   48) = (   0.3333333   0.5773503   0.0000000), wk =   0.0090703

     Dense  grid:    93827 G-vectors     FFT dimensions: (  30,  30, 240)

     Estimated max dynamical RAM per process >      45.00 MB

     Estimated total dynamical RAM >     539.98 MB

     Check: negative core charge=   -0.000001

     Initial potential from superposition of free atoms

     starting charge      35.9993, renormalised to      36.0000

     negative rho (up, down):  5.774E-04 0.000E+00
     Starting wfcs are   26 randomized atomic wfcs
     Checking if some PAW data can be deallocated... 

     total cpu time spent up to now is        1.8 secs

     Self-consistent Calculation

     iteration #  1     ecut=    60.00 Ry     beta= 0.50
     Davidson diagonalization with overlap
     ethr =  1.00E-02,  avg # of iterations =  2.0

     Threshold (ethr) on eigenvalues was too large:
     Diagonalizing with lowered threshold

     Davidson diagonalization with overlap
     ethr =  4.62E-04,  avg # of iterations =  2.1

     negative rho (up, down):  1.142E-03 0.000E+00

     total cpu time spent up to now is        5.3 secs

     total energy              =   -1228.30579053 Ry
     estimated scf accuracy    <       0.16868118 Ry

     iteration #  2     ecut=    60.00 Ry     beta= 0.50
     Davidson diagonalization with overlap
     ethr =  4.69E-04,  avg # of iterations =  8.4

     negative rho (up, down):  1.457E-03 0.000E+00

     total cpu time spent up to now is        8.1 secs

     total energy              =   -1228.07322894 Ry
     estimated scf accuracy    <       4.17417855 Ry

     iteration #  3     ecut=    60.00 Ry     beta= 0.50
     Davidson diagonalization with overlap
     ethr =  4.69E-04,  avg # of iterations =  7.8

     negative rho (up, down):  4.390E-03 0.000E+00

     total cpu time spent up to now is       10.9 secs

     total energy              =   -1228.37181845 Ry
     estimated scf accuracy    <       0.05205791 Ry

     iteration #  4     ecut=    60.00 Ry     beta= 0.50
     Davidson diagonalization with overlap
     ethr =  1.45E-04,  avg # of iterations =  4.6

     negative rho (up, down):  8.149E-03 0.000E+00

     total cpu time spent up to now is       13.1 secs

     total energy              =   -1228.37537543 Ry
     estimated scf accuracy    <       0.09988715 Ry

     iteration #  5     ecut=    60.00 Ry     beta= 0.50
     Davidson diagonalization with overlap
     ethr =  1.45E-04,  avg # of iterations =  3.6

     negative rho (up, down):  1.536E-02 0.000E+00

     total cpu time spent up to now is       15.1 secs

     total energy              =   -1228.38575646 Ry
     estimated scf accuracy    <       0.01737489 Ry

     iteration #  6     ecut=    60.00 Ry     beta= 0.50
     Davidson diagonalization with overlap
     ethr =  4.83E-05,  avg # of iterations =  3.2

     negative rho (up, down):  4.080E-03 0.000E+00

     total cpu time spent up to now is       17.0 secs

     total energy              =   -1228.36922737 Ry
     estimated scf accuracy    <       0.01768529 Ry

     iteration #  7     ecut=    60.00 Ry     beta= 0.50
     Davidson diagonalization with overlap
     ethr =  4.83E-05,  avg # of iterations =  5.2

     negative rho (up, down):  7.063E-03 0.000E+00

     total cpu time spent up to now is       19.4 secs

     total energy              =   -1228.38212014 Ry
     estimated scf accuracy    <       0.03185186 Ry

     iteration #  8     ecut=    60.00 Ry     beta= 0.50
     Davidson diagonalization with overlap
     ethr =  4.83E-05,  avg # of iterations =  2.0

     negative rho (up, down):  1.808E-03 0.000E+00

     total cpu time spent up to now is       21.1 secs

     total energy              =   -1228.37742480 Ry
     estimated scf accuracy    <       0.02549103 Ry

     iteration #  9     ecut=    60.00 Ry     beta= 0.50
     Davidson diagonalization with overlap
     ethr =  4.83E-05,  avg # of iterations =  2.1

     negative rho (up, down):  8.536E-04 0.000E+00

     total cpu time spent up to now is       23.0 secs

     total energy              =   -1228.37769965 Ry
     estimated scf accuracy    <       0.01074065 Ry

     iteration # 10     ecut=    60.00 Ry     beta= 0.50
     Davidson diagonalization with overlap
     ethr =  2.98E-05,  avg # of iterations =  3.9

     negative rho (up, down):  7.669E-04 0.000E+00

     total cpu time spent up to now is       25.0 secs

     total energy              =   -1228.37915266 Ry
     estimated scf accuracy    <       0.00061292 Ry

     iteration # 11     ecut=    60.00 Ry     beta= 0.50
     Davidson diagonalization with overlap
     ethr =  1.70E-06,  avg # of iterations =  5.2

     negative rho (up, down):  7.639E-04 0.000E+00

     total cpu time spent up to now is       27.3 secs

     total energy              =   -1228.37913767 Ry
     estimated scf accuracy    <       0.00080793 Ry

     iteration # 12     ecut=    60.00 Ry     beta= 0.50
     Davidson diagonalization with overlap
     ethr =  1.70E-06,  avg # of iterations =  4.1

     negative rho (up, down):  7.479E-04 0.000E+00

     total cpu time spent up to now is       29.4 secs

     total energy              =   -1228.37927509 Ry
     estimated scf accuracy    <       0.00013847 Ry

     iteration # 13     ecut=    60.00 Ry     beta= 0.50
     Davidson diagonalization with overlap
     ethr =  3.85E-07,  avg # of iterations =  2.2

     negative rho (up, down):  7.428E-04 0.000E+00

     total cpu time spent up to now is       31.1 secs

     total energy              =   -1228.37926308 Ry
     estimated scf accuracy    <       0.00006406 Ry

     iteration # 14     ecut=    60.00 Ry     beta= 0.50
     Davidson diagonalization with overlap
     ethr =  1.78E-07,  avg # of iterations =  4.4

     negative rho (up, down):  7.444E-04 0.000E+00

     total cpu time spent up to now is       33.3 secs

     total energy              =   -1228.37928171 Ry
     estimated scf accuracy    <       0.00003932 Ry

     iteration # 15     ecut=    60.00 Ry     beta= 0.50
     Davidson diagonalization with overlap
     ethr =  1.09E-07,  avg # of iterations =  1.0

     negative rho (up, down):  7.449E-04 0.000E+00

     total cpu time spent up to now is       34.9 secs

     total energy              =   -1228.37927930 Ry
     estimated scf accuracy    <       0.00002872 Ry

     iteration # 16     ecut=    60.00 Ry     beta= 0.50
     Davidson diagonalization with overlap
     ethr =  7.98E-08,  avg # of iterations =  2.0

     negative rho (up, down):  7.446E-04 0.000E+00

     total cpu time spent up to now is       36.5 secs

     total energy              =   -1228.37927841 Ry
     estimated scf accuracy    <       0.00001155 Ry

     iteration # 17     ecut=    60.00 Ry     beta= 0.50
     Davidson diagonalization with overlap
     ethr =  3.21E-08,  avg # of iterations =  4.3

     negative rho (up, down):  7.444E-04 0.000E+00

     total cpu time spent up to now is       38.6 secs

     total energy              =   -1228.37928030 Ry
     estimated scf accuracy    <       0.00000020 Ry

     iteration # 18     ecut=    60.00 Ry     beta= 0.50
     Davidson diagonalization with overlap
     ethr =  5.47E-10,  avg # of iterations =  8.0

     negative rho (up, down):  7.441E-04 0.000E+00

     total cpu time spent up to now is       41.4 secs

     total energy              =   -1228.37928072 Ry
     estimated scf accuracy    <       0.00000219 Ry

     iteration # 19     ecut=    60.00 Ry     beta= 0.50
     Davidson diagonalization with overlap
     ethr =  5.47E-10,  avg # of iterations =  3.3

     negative rho (up, down):  7.440E-04 0.000E+00

     total cpu time spent up to now is       43.3 secs

     total energy              =   -1228.37928087 Ry
     estimated scf accuracy    <       0.00000335 Ry

     iteration # 20     ecut=    60.00 Ry     beta= 0.50
     Davidson diagonalization with overlap
     ethr =  5.47E-10,  avg # of iterations =  3.6

     negative rho (up, down):  7.439E-04 0.000E+00

     total cpu time spent up to now is       45.2 secs

     total energy              =   -1228.37928040 Ry
     estimated scf accuracy    <       0.00000489 Ry

     iteration # 21     ecut=    60.00 Ry     beta= 0.50
     Davidson diagonalization with overlap
     ethr =  5.47E-10,  avg # of iterations =  5.2

     negative rho (up, down):  7.437E-04 0.000E+00

     total cpu time spent up to now is       47.5 secs

     total energy              =   -1228.37928045 Ry
     estimated scf accuracy    <       0.00000155 Ry

     iteration # 22     ecut=    60.00 Ry     beta= 0.50
     Davidson diagonalization with overlap
     ethr =  5.47E-10,  avg # of iterations =  2.5

     negative rho (up, down):  7.422E-04 0.000E+00

     total cpu time spent up to now is       49.3 secs

     total energy              =   -1228.37928072 Ry
     estimated scf accuracy    <       0.00000122 Ry

     iteration # 23     ecut=    60.00 Ry     beta= 0.50
     Davidson diagonalization with overlap
     ethr =  5.47E-10,  avg # of iterations =  5.1

     negative rho (up, down):  7.442E-04 0.000E+00

     total cpu time spent up to now is       51.5 secs

     total energy              =   -1228.37927937 Ry
     estimated scf accuracy    <       0.00000406 Ry

     iteration # 24     ecut=    60.00 Ry     beta= 0.50
     Davidson diagonalization with overlap
     ethr =  5.47E-10,  avg # of iterations =  9.1

     negative rho (up, down):  7.454E-04 0.000E+00

     total cpu time spent up to now is       54.8 secs

     total energy              =   -1228.37927979 Ry
     estimated scf accuracy    <       0.00000506 Ry

     iteration # 25     ecut=    60.00 Ry     beta= 0.50
     Davidson diagonalization with overlap
     ethr =  5.47E-10,  avg # of iterations =  7.1

     negative rho (up, down):  7.463E-04 0.000E+00

     total cpu time spent up to now is       57.8 secs

     total energy              =   -1228.37928040 Ry
     estimated scf accuracy    <       0.00000015 Ry

     iteration # 26     ecut=    60.00 Ry     beta= 0.50
     Davidson diagonalization with overlap
     ethr =  4.08E-10,  avg # of iterations =  1.4

     negative rho (up, down):  7.464E-04 0.000E+00

     total cpu time spent up to now is       59.5 secs

     total energy              =   -1228.37928037 Ry
     estimated scf accuracy    <       0.00000017 Ry

     iteration # 27     ecut=    60.00 Ry     beta= 0.50
     Davidson diagonalization with overlap
     ethr =  4.08E-10,  avg # of iterations =  1.6

     negative rho (up, down):  7.462E-04 0.000E+00

     total cpu time spent up to now is       61.1 secs

     total energy              =   -1228.37928036 Ry
     estimated scf accuracy    <       0.00000008 Ry

     iteration # 28     ecut=    60.00 Ry     beta= 0.50
     Davidson diagonalization with overlap
     ethr =  2.12E-10,  avg # of iterations =  4.5

     negative rho (up, down):  7.455E-04 0.000E+00

     total cpu time spent up to now is       63.2 secs

     End of self-consistent calculation

          k = 0.0000 0.0000 0.0000 ( 11811 PWs)   bands (ev):

   -75.2379 -48.4209 -48.4209 -48.4175 -48.4160 -48.4160 -39.4086 -39.1501
   -39.1501 -14.9932 -13.8031  -6.8567  -3.7196  -2.1969  -1.8500  -1.8500
    -0.7803  -0.7803

          k = 0.0000 0.0550 0.0000 ( 11811 PWs)   bands (ev):

   -75.2376 -48.4209 -48.4207 -48.4174 -48.4161 -48.4160 -39.4077 -39.1561
   -39.1515 -14.9608 -13.7781  -6.8057  -3.7269  -2.1763  -1.9526  -1.8131
    -0.8625  -0.8399

          k = 0.0000 0.1100 0.0000 ( 11791 PWs)   bands (ev):

   -75.2367 -48.4209 -48.4204 -48.4172 -48.4162 -48.4160 -39.4050 -39.1736
   -39.1558 -14.8647 -13.7037  -6.6560  -3.7502  -2.2483  -2.1169  -1.7065
    -1.1182  -1.0018

          k = 0.0000 0.1650 0.0000 ( 11795 PWs)   bands (ev):

   -75.2353 -48.4210 -48.4198 -48.4169 -48.4164 -48.4160 -39.4008 -39.2009
   -39.1624 -14.7084 -13.5830  -6.4175  -3.7943  -2.6896  -2.0493  -1.5442
    -1.5437  -1.2288

          k = 0.0000 0.2199 0.0000 ( 11809 PWs)   bands (ev):

   -75.2336 -48.4211 -48.4192 -48.4168 -48.4163 -48.4160 -39.3955 -39.2355
   -39.1708 -14.4984 -13.4208  -6.1097  -3.8750  -3.2320  -2.1104  -1.9813
    -1.4858  -1.3475

          k = 0.0000 0.2749 0.0000 ( 11773 PWs)   bands (ev):

   -75.2316 -48.4212 -48.4185 -48.4170 -48.4159 -48.4157 -39.3895 -39.2742
   -39.1802 -14.2442 -13.2249  -5.7678  -4.0655  -3.7791  -2.6375  -2.0298
    -1.7402  -1.1604

          k = 0.0000 0.3299 0.0000 ( 11759 PWs)   bands (ev):

   -75.2295 -48.4214 -48.4179 -48.4173 -48.4156 -48.4151 -39.3834 -39.3135
   -39.1898 -13.9604 -13.0067  -5.4682  -4.5390  -4.1278  -3.0606  -2.1194
    -1.9750  -1.0215

          k = 0.0000 0.3849 0.0000 ( 11771 PWs)   bands (ev):

   -75.2276 -48.4216 -48.4176 -48.4176 -48.4152 -48.4145 -39.3776 -39.3500
   -39.1988 -13.6677 -12.7821  -5.4793  -4.8974  -4.4187  -3.3042  -2.1824
    -2.1758  -0.9523

          k = 0.0000 0.4399 0.0000 ( 11771 PWs)   bands (ev):

   -75.2260 -48.4217 -48.4179 -48.4175 -48.4147 -48.4140 -39.3807 -39.3726
   -39.2064 -13.3951 -12.5729  -5.9023  -5.0776  -4.5127  -3.4218  -2.3334
    -2.1583  -0.9382

          k = 0.0000 0.4949 0.0000 ( 11725 PWs)   bands (ev):

   -75.2248 -48.4218 -48.4180 -48.4174 -48.4142 -48.4135 -39.4024 -39.3693
   -39.2118 -13.1795 -12.4065  -6.2942  -5.3224  -4.4648  -3.4772  -2.4416
    -2.0642  -0.9488

          k = 0.0000 0.5499 0.0000 ( 11702 PWs)   bands (ev):

   -75.2242 -48.4218 -48.4181 -48.4174 -48.4140 -48.4133 -39.4138 -39.3674
   -39.2146 -13.0590 -12.3126  -6.5143  -5.4728  -4.4349  -3.4996  -2.4965
    -1.9807  -0.9601

          k = 0.0476 0.0825 0.0000 ( 11795 PWs)   bands (ev):

   -75.2370 -48.4209 -48.4205 -48.4172 -48.4162 -48.4160 -39.4059 -39.1678
   -39.1545 -14.8965 -13.7284  -6.7053  -3.7420  -2.1600  -2.1267  -1.7426
    -1.0399  -0.9423

          k = 0.0476 0.1375 0.0000 ( 11800 PWs)   bands (ev):

   -75.2359 -48.4209 -48.4201 -48.4170 -48.4163 -48.4161 -39.4025 -39.1899
   -39.1602 -14.7703 -13.6308  -6.5107  -3.7741  -2.5144  -2.0714  -1.6126
    -1.3950  -1.1247

          k = 0.0476 0.1925 0.0000 ( 11812 PWs)   bands (ev):

   -75.2343 -48.4210 -48.4195 -48.4167 -48.4165 -48.4160 -39.3977 -39.2204
   -39.1681 -14.5870 -13.4892  -6.2358  -3.8303  -3.0011  -2.0221  -1.8828
    -1.4437  -1.3592

          k = 0.0476 0.2474 0.0000 ( 11786 PWs)   bands (ev):

   -75.2324 -48.4211 -48.4188 -48.4169 -48.4162 -48.4158 -39.3920 -39.2566
   -39.1775 -14.3546 -13.3099  -5.9060  -3.9403  -3.5525  -2.4497  -2.0090
    -1.6167  -1.2630

          k = 0.0476 0.3024 0.0000 ( 11777 PWs)   bands (ev):

   -75.2304 -48.4212 -48.4182 -48.4172 -48.4159 -48.4153 -39.3860 -39.2950
   -39.1875 -14.0850 -13.1023  -5.5695  -4.2790  -3.9798  -2.9405  -2.0922
    -1.8680  -1.1122

          k = 0.0476 0.3574 0.0000 ( 11767 PWs)   bands (ev):

   -75.2284 -48.4214 -48.4178 -48.4175 -48.4156 -48.4147 -39.3800 -39.3325
   -39.1974 -13.7954 -12.8798  -5.3670  -4.7663  -4.2751  -3.2599  -2.1995
    -2.0913  -1.0276

          k = 0.0476 0.4124 0.0000 ( 11756 PWs)   bands (ev):

   -75.2267 -48.4215 -48.4178 -48.4175 -48.4151 -48.4141 -39.3749 -39.3654
   -39.2061 -13.5106 -12.6612  -5.6496  -4.9497  -4.4946  -3.4105  -2.3188
    -2.2038  -1.0097

          k = 0.0476 0.4674 0.0000 ( 11722 PWs)   bands (ev):

   -75.2253 -48.4216 -48.4179 -48.4174 -48.4146 -48.4137 -39.3914 -39.3705
   -39.2129 -13.2636 -12.4709  -6.0876  -5.1836  -4.4759  -3.4727  -2.4607
    -2.1591  -1.0244

          k = 0.0476 0.5224 0.0000 ( 11700 PWs)   bands (ev):

   -75.2244 -48.4217 -48.4181 -48.4174 -48.4142 -48.4134 -39.4078 -39.3679
   -39.2172 -13.0927 -12.3383  -6.3999  -5.3944  -4.4278  -3.4959  -2.5551
    -2.0717  -1.0411

          k = 0.0476 0.5774 0.0000 ( 11684 PWs)   bands (ev):

   -75.2241 -48.4217 -48.4181 -48.4174 -48.4140 -48.4133 -39.4134 -39.3670
   -39.2187 -13.0312 -12.2902  -6.5118  -5.4724  -4.4126  -3.5014  -2.5879
    -2.0299  -1.0472

          k = 0.0952 0.1650 0.0000 ( 11813 PWs)   bands (ev):

   -75.2346 -48.4210 -48.4197 -48.4167 -48.4165 -48.4160 -39.3985 -39.2147
   -39.1677 -14.6170 -13.5123  -6.2785  -3.8139  -2.9149  -2.0195  -1.8363
    -1.4848  -1.3009

          k = 0.0952 0.2199 0.0000 ( 11803 PWs)   bands (ev):

   -75.2329 -48.4210 -48.4192 -48.4168 -48.4164 -48.4158 -39.3934 -39.2460
   -39.1774 -14.4111 -13.3533  -5.9765  -3.8772  -3.4059  -2.3740  -2.0051
    -1.5251  -1.3469

          k = 0.0952 0.2749 0.0000 ( 11767 PWs)   bands (ev):

   -75.2309 -48.4210 -48.4186 -48.4170 -48.4162 -48.4153 -39.3876 -39.2808
   -39.1885 -14.1623 -13.1615  -5.6363  -4.0625  -3.8697  -2.9068  -2.0857
    -1.7751  -1.2202

          k = 0.0952 0.3299 0.0000 ( 11775 PWs)   bands (ev):

   -75.2290 -48.4211 -48.4181 -48.4173 -48.4160 -48.4147 -39.3818 -39.3163
   -39.1999 -13.8851 -12.9481  -5.3287  -4.5622  -4.1122  -3.3085  -2.2335
    -2.0250  -1.1461

          k = 0.0952 0.3849 0.0000 ( 11765 PWs)   bands (ev):

   -75.2272 -48.4212 -48.4178 -48.4175 -48.4156 -48.4142 -39.3763 -39.3491
   -39.2105 -13.6002 -12.7290  -5.3673  -4.8442  -4.3988  -3.4901  -2.3859
    -2.2351  -1.1452

          k = 0.0952 0.4399 0.0000 ( 11731 PWs)   bands (ev):

   -75.2256 -48.4212 -48.4178 -48.4176 -48.4151 -48.4137 -39.3768 -39.3715
   -39.2194 -13.3358 -12.5253  -5.8040  -4.9922  -4.4726  -3.5342  -2.5521
    -2.3219  -1.1736

          k = 0.0952 0.4949 0.0000 ( 11708 PWs)   bands (ev):

   -75.2245 -48.4213 -48.4179 -48.4175 -48.4146 -48.4135 -39.3964 -39.3683
   -39.2258 -13.1276 -12.3639  -6.1822  -5.2436  -4.4016  -3.5247  -2.7095
    -2.3020  -1.1887

          k = 0.0952 0.5499 0.0000 ( 11674 PWs)   bands (ev):

   -75.2239 -48.4213 -48.4180 -48.4175 -48.4142 -48.4134 -39.4066 -39.3666
   -39.2291 -13.0116 -12.2731  -6.3923  -5.3942  -4.3648  -3.5049  -2.8044
    -2.2659  -1.1865

          k = 0.1429 0.2474 0.0000 ( 11777 PWs)   bands (ev):

   -75.2311 -48.4208 -48.4188 -48.4169 -48.4163 -48.4153 -39.3882 -39.2753
   -39.1895 -14.1885 -13.1815  -5.6592  -3.9694  -3.8341  -2.9080  -2.0859
    -1.7356  -1.2661

          k = 0.1429 0.3024 0.0000 ( 11770 PWs)   bands (ev):

   -75.2293 -48.4207 -48.4184 -48.4172 -48.4163 -48.4147 -39.3827 -39.3060
   -39.2030 -13.9313 -12.9832  -5.3209  -4.4008  -3.9862  -3.4019  -2.2649
    -1.9799  -1.2197

          k = 0.1429 0.3574 0.0000 ( 11760 PWs)   bands (ev):

   -75.2275 -48.4207 -48.4180 -48.4174 -48.4161 -48.4142 -39.3773 -39.3356
   -39.2165 -13.6568 -12.7716  -5.1184  -4.7968  -4.2234  -3.6706  -2.4839
    -2.2343  -1.2385

          k = 0.1429 0.4124 0.0000 ( 11739 PWs)   bands (ev):

   -75.2259 -48.4207 -48.4178 -48.4176 -48.4157 -48.4137 -39.3725 -39.3615
   -39.2286 -13.3887 -12.5646  -5.4878  -4.7857  -4.4639  -3.7027  -2.6860
    -2.4618  -1.2766

          k = 0.1429 0.4674 0.0000 ( 11707 PWs)   bands (ev):

   -75.2246 -48.4208 -48.4178 -48.4176 -48.4152 -48.4135 -39.3818 -39.3686
   -39.2382 -13.1582 -12.3856  -5.8933  -5.0357  -4.3810  -3.6500  -2.8742
    -2.6065  -1.2782

          k = 0.1429 0.5224 0.0000 ( 11697 PWs)   bands (ev):

   -75.2238 -48.4208 -48.4178 -48.4176 -48.4147 -48.4134 -39.3946 -39.3662
   -39.2444 -13.0000 -12.2617  -6.1719  -5.2482  -4.3092  -3.5651  -3.0494
    -2.6604  -1.2459

          k = 0.1429 0.5774 0.0000 ( 11686 PWs)   bands (ev):

   -75.2236 -48.4208 -48.4178 -48.4177 -48.4145 -48.4135 -39.3990 -39.3654
   -39.2465 -12.9433 -12.2170  -6.2711  -5.3244  -4.2893  -3.5118  -3.1351
    -2.6715  -1.2257

          k = 0.1905 0.3299 0.0000 ( 11763 PWs)   bands (ev):

   -75.2276 -48.4205 -48.4182 -48.4173 -48.4162 -48.4142 -39.3776 -39.3301
   -39.2194 -13.6761 -12.7861  -5.0065  -4.7943  -4.0708  -3.8312  -2.5326
    -2.2274  -1.2655

          k = 0.1905 0.3849 0.0000 ( 11735 PWs)   bands (ev):

   -75.2260 -48.4204 -48.4180 -48.4174 -48.4161 -48.4137 -39.3729 -39.3513
   -39.2358 -13.4166 -12.5851  -5.2351  -4.6874  -4.3897  -3.9182  -2.8245
    -2.4980  -1.3133

          k = 0.1905 0.4399 0.0000 ( 11727 PWs)   bands (ev):

   -75.2247 -48.4203 -48.4179 -48.4175 -48.4157 -48.4135 -39.3695 -39.3677
   -39.2504 -13.1790 -12.4002  -5.6036  -4.8087  -4.3979  -3.8641  -3.0751
    -2.7638  -1.3043

          k = 0.1905 0.4949 0.0000 ( 11706 PWs)   bands (ev):

   -75.2237 -48.4202 -48.4179 -48.4175 -48.4153 -48.4135 -39.3802 -39.3659
   -39.2612 -12.9944 -12.2552  -5.8928  -5.0642  -4.2752  -3.7599  -3.2577
    -2.9889  -1.2400

          k = 0.1905 0.5499 0.0000 ( 11673 PWs)   bands (ev):

   -75.2232 -48.4202 -48.4178 -48.4176 -48.4149 -48.4135 -39.3863 -39.3644
   -39.2670 -12.8926 -12.1745  -6.0530  -5.2028  -4.2291  -3.6285  -3.4017
    -3.1183  -1.1780

          k = 0.2381 0.4124 0.0000 ( 11719 PWs)   bands (ev):

   -75.2247 -48.4200 -48.4180 -48.4173 -48.4160 -48.4135 -39.3690 -39.3624
   -39.2558 -13.1864 -12.4053  -5.4645  -4.6816  -4.4298  -3.9927  -3.1850
    -2.7866  -1.3062

          k = 0.2381 0.4674 0.0000 ( 11709 PWs)   bands (ev):

   -75.2237 -48.4198 -48.4181 -48.4173 -48.4158 -48.4135 -39.3691 -39.3657
   -39.2737 -12.9924 -12.2524  -5.6598  -4.9220  -4.2694  -3.9758  -3.4715
    -3.0655  -1.2188

          k = 0.2381 0.5224 0.0000 ( 11690 PWs)   bands (ev):

   -75.2230 -48.4196 -48.4181 -48.4172 -48.4154 -48.4136 -39.3717 -39.3638
   -39.2865 -12.8616 -12.1482  -5.7923  -5.0866  -4.2161  -3.9008  -3.6143
    -3.3035  -1.1094

          k = 0.2381 0.5774 0.0000 ( 11668 PWs)   bands (ev):

   -75.2228 -48.4196 -48.4181 -48.4172 -48.4152 -48.4137 -39.3723 -39.3632
   -39.2913 -12.8153 -12.1111  -5.8398  -5.1436  -4.2211  -3.8448  -3.6342
    -3.4236  -1.0596

          k = 0.2857 0.4949 0.0000 ( 11714 PWs)   bands (ev):

   -75.2230 -48.4194 -48.4182 -48.4170 -48.4158 -48.4137 -39.3644 -39.3634
   -39.2959 -12.8513 -12.1394  -5.6477  -5.0552  -4.2021  -4.0606  -3.7269
    -3.3162  -1.0771

          k = 0.2857 0.5499 0.0000 ( 11688 PWs)   bands (ev):

   -75.2226 -48.4192 -48.4183 -48.4167 -48.4157 -48.4138 -39.3625 -39.3570
   -39.3120 -12.7750 -12.0778  -5.5992  -5.1604  -4.3063  -3.9934  -3.8276
    -3.4689  -0.9673

          k = 0.3333 0.5774 0.0000 ( 11694 PWs)   bands (ev):

   -75.2224 -48.4189 -48.4185 -48.4162 -48.4161 -48.4140 -39.3621 -39.3407
   -39.3321 -12.7449 -12.0532  -5.3722  -5.3366  -4.3857  -3.9885  -3.9145
    -3.5116  -0.9044

     highest occupied level (ev):    -0.7803

!    total energy              =   -1228.37928038 Ry
     total all-electron energy =    -37944.469711 Ry
     estimated scf accuracy    <          4.7E-09 Ry

     The total energy is the sum of the following terms:
     one-electron contribution =   -2749.50414407 Ry
     hartree contribution      =    1372.31231258 Ry
     xc contribution           =     -73.23284316 Ry
     ewald contribution        =    1014.62638954 Ry
     one-center paw contrib.   =    -792.58099527 Ry

     convergence has been achieved in  28 iterations

     Writing all to output data dir ./work/WSSe.save/

     init_run     :      1.42s CPU      1.54s WALL (       1 calls)
     electrons    :     57.81s CPU     61.44s WALL (       1 calls)

     Called by init_run:
     wfcinit      :      0.74s CPU      0.81s WALL (       1 calls)
     potinit      :      0.16s CPU      0.17s WALL (       1 calls)
     hinit0       :      0.44s CPU      0.44s WALL (       1 calls)

     Called by electrons:
     c_bands      :     46.26s CPU     49.28s WALL (      29 calls)
     sum_band     :      7.81s CPU      8.37s WALL (      29 calls)
     v_of_rho     :      0.17s CPU      0.18s WALL (      29 calls)
     newd         :      2.05s CPU      2.08s WALL (      29 calls)
     PAW_pot      :      1.50s CPU      1.54s WALL (      29 calls)
     mix_rho      :      0.10s CPU      0.10s WALL (      29 calls)

     Called by c_bands:
     init_us_2    :      0.82s CPU      0.87s WALL (    2832 calls)
     init_us_2:cp :      0.81s CPU      0.86s WALL (    2832 calls)
     cegterg      :     44.04s CPU     47.00s WALL (    1392 calls)

     Called by *egterg:
     cdiaghg      :      1.83s CPU      1.89s WALL (    7077 calls)
     h_psi        :     28.49s CPU     31.03s WALL (    7173 calls)
     s_psi        :      3.80s CPU      3.99s WALL (    7173 calls)
     g_psi        :      0.16s CPU      0.16s WALL (    5733 calls)

     Called by h_psi:
     h_psi:calbec :      3.80s CPU      4.22s WALL (    7173 calls)
     vloc_psi     :     20.91s CPU     22.74s WALL (    7173 calls)
     add_vuspsi   :      3.69s CPU      3.98s WALL (    7173 calls)

     General routines
     calbec       :      5.07s CPU      5.63s WALL (    8565 calls)
     fft          :      0.35s CPU      0.35s WALL (     320 calls)
     ffts         :      0.01s CPU      0.01s WALL (      29 calls)
     fftw         :     22.70s CPU     24.71s WALL (  163526 calls)

     Parallel routines

     PWSCF        :     59.56s CPU   1m 3.40s WALL


   This run was terminated on:  11:16:23  30Jan2023            

=------------------------------------------------------------------------------=
   JOB DONE.
=------------------------------------------------------------------------------=
