
     Program PWSCF v.7.1 starts on 30Jan2023 at 11: 8: 4 

     This program is part of the open-source Quantum ESPRESSO suite
     for quantum simulation of materials; please cite
         "P. Giannozzi et al., J. Phys.:Condens. Matter 21 395502 (2009);
         "P. Giannozzi et al., J. Phys.:Condens. Matter 29 465901 (2017);
         "P. Giannozzi et al., J. Chem. Phys. 152 154105 (2020);
          URL http://www.quantum-espresso.org", 
     in publications or presentations arising from this work. More details at
     http://www.quantum-espresso.org/quote

     Parallel version (MPI), running on    12 processors

     MPI processes distributed on     1 nodes
     122236 MiB available memory on the printing compute node when the environment starts

     Waiting for input...
     Reading input from standard input

     Current dimensions of program PWSCF are:
     Max number of different atomic species (ntypx) = 10
     Max number of k-points (npk) =  40000
     Max angular momentum in pseudopotentials (lmaxx) =  4
     file W.pbe-spn-kjpaw_psl.1.0.0.UPF: wavefunction(s)  6S 5P 5D renormalized
     file S.pbe-n-kjpaw_psl.1.0.0.UPF: wavefunction(s)  3S 3P renormalized
     file Se.pbe-dn-kjpaw_psl.1.0.0.UPF: wavefunction(s)  4S 4P 3D renormalized
     Message from routine setup:
     using ibrav=0 with symmetry is DISCOURAGED, use correct ibrav instead

     R & G space division:  proc/nbgrp/npool/nimage =      12
     Subspace diagonalization in iterative solution of the eigenvalue problem:
     a serial algorithm will be used


     Parallelization info
     --------------------
     sticks:   dense  smooth     PW     G-vecs:    dense   smooth      PW
     Min          49      49     14                 7805     7805    1212
     Max          50      50     15                 7840     7840    1238
     Sum         595     595    169                93827    93827   14695

     Using Slab Decomposition



     bravais-lattice index     =            0
     lattice parameter (alat)  =       6.0471  a.u.
     unit-cell volume          =    1496.1227 (a.u.)^3
     number of atoms/cell      =            3
     number of atomic types    =            3
     number of electrons       =        36.00
     number of Kohn-Sham states=           18
     kinetic-energy cutoff     =      60.0000  Ry
     charge density cutoff     =     240.0000  Ry
     scf convergence threshold =      1.0E-08
     mixing beta               =       0.5000
     number of iterations used =            8  plain     mixing
     Exchange-correlation= SLA  PW   PBX  PBC
                           (   1   4   3   4   0   0   0)

     celldm(1)=   6.047124  celldm(2)=   0.000000  celldm(3)=   0.000000
     celldm(4)=   0.000000  celldm(5)=   0.000000  celldm(6)=   0.000000

     crystal axes: (cart. coord. in units of alat)
               a(1) = (   1.000000   0.000000   0.000000 )  
               a(2) = (  -0.500000   0.866025   0.000000 )  
               a(3) = (   0.000000   0.000000   7.812500 )  

     reciprocal axes: (cart. coord. in units 2 pi/alat)
               b(1) = (  1.000000  0.577350 -0.000000 )  
               b(2) = (  0.000000  1.154701  0.000000 )  
               b(3) = (  0.000000 -0.000000  0.128000 )  


     PseudoPot. # 1 for W  read from file:
     /home/mainadmin/research/danu/pseudo/W.pbe-spn-kjpaw_psl.1.0.0.UPF
     MD5 check sum: 03c3df5b60893f488392c7401945500a
     Pseudo is Projector augmented-wave + core cor, Zval = 14.0
     Generated using &quot;atomic&quot; code by A. Dal Corso  v.6.2.2
     Shape of augmentation charge: PSQ
     Using radial grid of 1273 points,  6 beta functions with: 
                l(1) =   0
                l(2) =   0
                l(3) =   1
                l(4) =   1
                l(5) =   2
                l(6) =   2
     Q(r) pseudized with 0 coefficients 


     PseudoPot. # 2 for S  read from file:
     /home/mainadmin/research/danu/pseudo/S.pbe-n-kjpaw_psl.1.0.0.UPF
     MD5 check sum: fb45dfebcf3e72a4e1bd4a866ec2e262
     Pseudo is Projector augmented-wave + core cor, Zval =  6.0
     Generated using &quot;atomic&quot; code by A. Dal Corso  v.6.3
     Shape of augmentation charge: PSQ
     Using radial grid of 1151 points,  6 beta functions with: 
                l(1) =   0
                l(2) =   0
                l(3) =   1
                l(4) =   1
                l(5) =   2
                l(6) =   2
     Q(r) pseudized with 0 coefficients 


     PseudoPot. # 3 for Se read from file:
     /home/mainadmin/research/danu/pseudo/Se.pbe-dn-kjpaw_psl.1.0.0.UPF
     MD5 check sum: ac240dd2bae32a30e0bf3a38df9c8785
     Pseudo is Projector augmented-wave + core cor, Zval = 16.0
     Generated using &quot;atomic&quot; code by A. Dal Corso  v.6.3
     Shape of augmentation charge: PSQ
     Using radial grid of 1211 points,  6 beta functions with: 
                l(1) =   0
                l(2) =   0
                l(3) =   1
                l(4) =   1
                l(5) =   2
                l(6) =   2
     Q(r) pseudized with 0 coefficients 


     atomic species   valence    mass     pseudopotential
        W             14.00   183.84000     W ( 1.00)
        S              6.00    32.06500     S ( 1.00)
        Se            16.00    78.96000     Se( 1.00)

      6 Sym. Ops. (no inversion) found



   Cartesian axes

     site n.     atom                  positions (alat units)
         1           Se  tau(   1) = (   0.5000000   0.2886751   4.5312500  )
         2           W   tau(   2) = (  -0.0000000   0.5773503   3.9062500  )
         3           S   tau(   3) = (   0.5000000   0.2886751  -4.5312500  )

     number of k points=    14
                       cart. coord. in units 2pi/alat
        k(    1) = (   0.0000000   0.0000000   0.0000000), wk =   0.0200000
        k(    2) = (   0.0000000   0.1154701   0.0000000), wk =   0.1200000
        k(    3) = (   0.0000000   0.2309401   0.0000000), wk =   0.1200000
        k(    4) = (   0.0000000   0.3464102   0.0000000), wk =   0.1200000
        k(    5) = (   0.0000000   0.4618802   0.0000000), wk =   0.1200000
        k(    6) = (   0.0000000  -0.5773503   0.0000000), wk =   0.0600000
        k(    7) = (   0.1000000   0.1732051   0.0000000), wk =   0.1200000
        k(    8) = (   0.1000000   0.2886751   0.0000000), wk =   0.2400000
        k(    9) = (   0.1000000   0.4041452   0.0000000), wk =   0.2400000
        k(   10) = (   0.1000000   0.5196152   0.0000000), wk =   0.2400000
        k(   11) = (   0.2000000   0.3464102   0.0000000), wk =   0.1200000
        k(   12) = (   0.2000000   0.4618802   0.0000000), wk =   0.2400000
        k(   13) = (   0.2000000   0.5773503   0.0000000), wk =   0.1200000
        k(   14) = (   0.3000000   0.5196152   0.0000000), wk =   0.1200000

     Dense  grid:    93827 G-vectors     FFT dimensions: (  30,  30, 240)

     Estimated max dynamical RAM per process >      35.87 MB

     Estimated total dynamical RAM >     430.39 MB

     Check: negative core charge=   -0.000001

     Initial potential from superposition of free atoms

     starting charge      35.9993, renormalised to      36.0000

     negative rho (up, down):  5.774E-04 0.000E+00
     Starting wfcs are   26 randomized atomic wfcs
     Checking if some PAW data can be deallocated... 

     total cpu time spent up to now is        1.2 secs

     Self-consistent Calculation

     iteration #  1     ecut=    60.00 Ry     beta= 0.50
     Davidson diagonalization with overlap
     ethr =  1.00E-02,  avg # of iterations =  2.0

     Threshold (ethr) on eigenvalues was too large:
     Diagonalizing with lowered threshold

     Davidson diagonalization with overlap
     ethr =  4.61E-04,  avg # of iterations =  2.1

     negative rho (up, down):  1.096E-03 0.000E+00

     total cpu time spent up to now is        2.5 secs

     total energy              =   -1228.30598190 Ry
     estimated scf accuracy    <       0.16840643 Ry

     iteration #  2     ecut=    60.00 Ry     beta= 0.50
     Davidson diagonalization with overlap
     ethr =  4.68E-04,  avg # of iterations =  8.3

     negative rho (up, down):  1.366E-03 0.000E+00

     total cpu time spent up to now is        3.4 secs

     total energy              =   -1228.08255613 Ry
     estimated scf accuracy    <       4.04410061 Ry

     iteration #  3     ecut=    60.00 Ry     beta= 0.50
     Davidson diagonalization with overlap
     ethr =  4.68E-04,  avg # of iterations =  7.9

     negative rho (up, down):  4.140E-03 0.000E+00

     total cpu time spent up to now is        4.4 secs

     total energy              =   -1228.37204170 Ry
     estimated scf accuracy    <       0.04906125 Ry

     iteration #  4     ecut=    60.00 Ry     beta= 0.50
     Davidson diagonalization with overlap
     ethr =  1.36E-04,  avg # of iterations =  4.8

     negative rho (up, down):  7.641E-03 0.000E+00

     total cpu time spent up to now is        5.2 secs

     total energy              =   -1228.37498236 Ry
     estimated scf accuracy    <       0.10008295 Ry

     iteration #  5     ecut=    60.00 Ry     beta= 0.50
     Davidson diagonalization with overlap
     ethr =  1.36E-04,  avg # of iterations =  3.7

     negative rho (up, down):  1.525E-02 0.000E+00

     total cpu time spent up to now is        5.9 secs

     total energy              =   -1228.38548327 Ry
     estimated scf accuracy    <       0.01587700 Ry

     iteration #  6     ecut=    60.00 Ry     beta= 0.50
     Davidson diagonalization with overlap
     ethr =  4.41E-05,  avg # of iterations =  3.6

     negative rho (up, down):  3.896E-03 0.000E+00

     total cpu time spent up to now is        6.6 secs

     total energy              =   -1228.36965491 Ry
     estimated scf accuracy    <       0.01702903 Ry

     iteration #  7     ecut=    60.00 Ry     beta= 0.50
     Davidson diagonalization with overlap
     ethr =  4.41E-05,  avg # of iterations =  5.1

     negative rho (up, down):  7.166E-03 0.000E+00

     total cpu time spent up to now is        7.5 secs

     total energy              =   -1228.38154094 Ry
     estimated scf accuracy    <       0.02775293 Ry

     iteration #  8     ecut=    60.00 Ry     beta= 0.50
     Davidson diagonalization with overlap
     ethr =  4.41E-05,  avg # of iterations =  2.0

     negative rho (up, down):  1.796E-03 0.000E+00

     total cpu time spent up to now is        8.1 secs

     total energy              =   -1228.37770517 Ry
     estimated scf accuracy    <       0.02085662 Ry

     iteration #  9     ecut=    60.00 Ry     beta= 0.50
     Davidson diagonalization with overlap
     ethr =  4.41E-05,  avg # of iterations =  2.0

     negative rho (up, down):  7.772E-04 0.000E+00

     total cpu time spent up to now is        8.8 secs

     total energy              =   -1228.37784554 Ry
     estimated scf accuracy    <       0.01049235 Ry

     iteration # 10     ecut=    60.00 Ry     beta= 0.50
     Davidson diagonalization with overlap
     ethr =  2.91E-05,  avg # of iterations =  3.6

     negative rho (up, down):  7.502E-04 0.000E+00

     total cpu time spent up to now is        9.6 secs

     total energy              =   -1228.37909697 Ry
     estimated scf accuracy    <       0.00054247 Ry

     iteration # 11     ecut=    60.00 Ry     beta= 0.50
     Davidson diagonalization with overlap
     ethr =  1.51E-06,  avg # of iterations =  6.1

     negative rho (up, down):  7.685E-04 0.000E+00

     total cpu time spent up to now is       10.4 secs

     total energy              =   -1228.37913942 Ry
     estimated scf accuracy    <       0.00096561 Ry

     iteration # 12     ecut=    60.00 Ry     beta= 0.50
     Davidson diagonalization with overlap
     ethr =  1.51E-06,  avg # of iterations =  4.8

     negative rho (up, down):  7.528E-04 0.000E+00

     total cpu time spent up to now is       11.2 secs

     total energy              =   -1228.37928295 Ry
     estimated scf accuracy    <       0.00008934 Ry

     iteration # 13     ecut=    60.00 Ry     beta= 0.50
     Davidson diagonalization with overlap
     ethr =  2.48E-07,  avg # of iterations =  2.0

     negative rho (up, down):  7.428E-04 0.000E+00

     total cpu time spent up to now is       11.9 secs

     total energy              =   -1228.37927019 Ry
     estimated scf accuracy    <       0.00006547 Ry

     iteration # 14     ecut=    60.00 Ry     beta= 0.50
     Davidson diagonalization with overlap
     ethr =  1.82E-07,  avg # of iterations =  4.3

     negative rho (up, down):  7.446E-04 0.000E+00

     total cpu time spent up to now is       12.6 secs

     total energy              =   -1228.37928387 Ry
     estimated scf accuracy    <       0.00000766 Ry

     iteration # 15     ecut=    60.00 Ry     beta= 0.50
     Davidson diagonalization with overlap
     ethr =  2.13E-08,  avg # of iterations =  2.6

     negative rho (up, down):  7.468E-04 0.000E+00

     total cpu time spent up to now is       13.4 secs

     total energy              =   -1228.37928265 Ry
     estimated scf accuracy    <       0.00000844 Ry

     iteration # 16     ecut=    60.00 Ry     beta= 0.50
     Davidson diagonalization with overlap
     ethr =  2.13E-08,  avg # of iterations =  3.5

     negative rho (up, down):  7.471E-04 0.000E+00

     total cpu time spent up to now is       14.1 secs

     total energy              =   -1228.37928323 Ry
     estimated scf accuracy    <       0.00000110 Ry

     iteration # 17     ecut=    60.00 Ry     beta= 0.50
     Davidson diagonalization with overlap
     ethr =  3.05E-09,  avg # of iterations =  5.1

     negative rho (up, down):  7.464E-04 0.000E+00

     total cpu time spent up to now is       14.9 secs

     total energy              =   -1228.37928348 Ry
     estimated scf accuracy    <       0.00000014 Ry

     iteration # 18     ecut=    60.00 Ry     beta= 0.50
     Davidson diagonalization with overlap
     ethr =  3.81E-10,  avg # of iterations =  4.8

     negative rho (up, down):  7.467E-04 0.000E+00

     total cpu time spent up to now is       15.7 secs

     End of self-consistent calculation

          k = 0.0000 0.0000 0.0000 ( 11811 PWs)   bands (ev):

   -75.2378 -48.4210 -48.4210 -48.4176 -48.4162 -48.4162 -39.4086 -39.1500
   -39.1500 -14.9934 -13.8034  -6.8567  -3.7197  -2.1969  -1.8500  -1.8500
    -0.7804  -0.7804

          k = 0.0000 0.1155 0.0000 ( 11793 PWs)   bands (ev):

   -75.2365 -48.4210 -48.4205 -48.4172 -48.4163 -48.4162 -39.4046 -39.1758
   -39.1562 -14.8518 -13.6940  -6.6359  -3.7536  -2.2861  -2.1105  -1.6925
    -1.1538  -1.0223

          k = 0.0000 0.2309 0.0000 ( 11817 PWs)   bands (ev):

   -75.2331 -48.4213 -48.4192 -48.4170 -48.4163 -48.4161 -39.3943 -39.2429
   -39.1725 -14.4508 -13.3843  -6.0425  -3.8994  -3.3466  -2.2129  -1.9911
    -1.5373  -1.3084

          k = 0.0000 0.3464 0.0000 ( 11759 PWs)   bands (ev):

   -75.2288 -48.4216 -48.4179 -48.4176 -48.4156 -48.4150 -39.3815 -39.3248
   -39.1926 -13.8724 -12.9394  -5.4161  -4.6857  -4.2199  -3.1519  -2.1450
    -2.0394  -0.9936

          k = 0.0000 0.4619 0.0000 ( 11735 PWs)   bands (ev):

   -75.2254 -48.4219 -48.4181 -48.4175 -48.4146 -48.4139 -39.3904 -39.3711
   -39.2087 -13.2999 -12.4998  -6.0745  -5.1793  -4.4959  -3.4493  -2.3830
    -2.1253  -0.9413

          k = 0.0000-0.5774 0.0000 ( 11704 PWs)   bands (ev):

   -75.2241 -48.4220 -48.4183 -48.4175 -48.4141 -48.4134 -39.4152 -39.3672
   -39.2149 -13.0434 -12.3006  -6.5431  -5.4928  -4.4315  -3.5024  -2.5035
    -1.9682  -0.9620

          k = 0.1000 0.1732 0.0000 ( 11809 PWs)   bands (ev):

   -75.2342 -48.4211 -48.4197 -48.4168 -48.4167 -48.4161 -39.3975 -39.2204
   -39.1694 -14.5802 -13.4840  -6.2234  -3.8240  -3.0066  -2.0149  -1.9352
    -1.4579  -1.3419

          k = 0.1000 0.2887 0.0000 ( 11766 PWs)   bands (ev):

   -75.2303 -48.4211 -48.4186 -48.4172 -48.4163 -48.4152 -39.3859 -39.2903
   -39.1920 -14.0870 -13.1037  -5.5387  -4.1799  -3.9383  -3.0502  -2.1267
    -1.8444  -1.1993

          k = 0.1000 0.4041 0.0000 ( 11761 PWs)   bands (ev):

   -75.2265 -48.4213 -48.4179 -48.4177 -48.4156 -48.4141 -39.3744 -39.3592
   -39.2149 -13.4973 -12.6499  -5.5025  -4.8593  -4.4632  -3.5319  -2.4595
    -2.2956  -1.1694

          k = 0.1000 0.5196 0.0000 ( 11693 PWs)   bands (ev):

   -75.2241 -48.4214 -48.4181 -48.4176 -48.4145 -48.4135 -39.4014 -39.3672
   -39.2290 -13.0574 -12.3090  -6.2893  -5.3210  -4.3736  -3.5183  -2.7885
    -2.3146  -1.2001

          k = 0.2000 0.3464 0.0000 ( 11751 PWs)   bands (ev):

   -75.2269 -48.4206 -48.4183 -48.4174 -48.4163 -48.4141 -39.3756 -39.3387
   -39.2261 -13.5723 -12.7059  -5.0016  -4.8334  -4.1676  -3.9159  -2.6533
    -2.3345  -1.2895

          k = 0.2000 0.4619 0.0000 ( 11713 PWs)   bands (ev):

   -75.2241 -48.4203 -48.4181 -48.4176 -48.4157 -48.4136 -39.3725 -39.3671
   -39.2587 -13.0797 -12.3223  -5.7091  -4.9102  -4.3287  -3.8624  -3.2202
    -2.9026  -1.2753

          k = 0.2000 0.5774 0.0000 ( 11684 PWs)   bands (ev):

   -75.2230 -48.4202 -48.4180 -48.4176 -48.4151 -48.4137 -39.3842 -39.3640
   -39.2723 -12.8662 -12.1534  -6.0296  -5.2012  -4.2162  -3.6366  -3.4768
    -3.2166  -1.1494

          k = 0.3000 0.5196 0.0000 ( 11684 PWs)   bands (ev):

   -75.2226 -48.4194 -48.4184 -48.4169 -48.4159 -48.4139 -39.3628 -39.3585
   -39.3079 -12.7954 -12.0945  -5.6008  -5.1298  -4.2673  -4.0407  -3.8054
    -3.4240  -0.9970

     highest occupied level (ev):    -0.7804

!    total energy              =   -1228.37928350 Ry
     total all-electron energy =    -37944.469714 Ry
     estimated scf accuracy    <          6.1E-09 Ry

     The total energy is the sum of the following terms:
     one-electron contribution =   -2749.50322689 Ry
     hartree contribution      =    1372.31138802 Ry
     xc contribution           =     -73.23283341 Ry
     ewald contribution        =    1014.62638954 Ry
     one-center paw contrib.   =    -792.58100076 Ry

     convergence has been achieved in  18 iterations

     Writing all to output data dir ./work/WSSe.save/

     init_run     :      0.90s CPU      0.96s WALL (       1 calls)
     electrons    :     13.69s CPU     14.44s WALL (       1 calls)

     Called by init_run:
     wfcinit      :      0.23s CPU      0.24s WALL (       1 calls)
     potinit      :      0.16s CPU      0.17s WALL (       1 calls)
     hinit0       :      0.43s CPU      0.44s WALL (       1 calls)

     Called by electrons:
     c_bands      :      8.70s CPU      9.31s WALL (      19 calls)
     sum_band     :      2.59s CPU      2.70s WALL (      19 calls)
     v_of_rho     :      0.11s CPU      0.12s WALL (      19 calls)
     newd         :      1.33s CPU      1.37s WALL (      19 calls)
     PAW_pot      :      0.97s CPU      1.00s WALL (      19 calls)
     mix_rho      :      0.06s CPU      0.06s WALL (      19 calls)

     Called by c_bands:
     init_us_2    :      0.16s CPU      0.17s WALL (     546 calls)
     init_us_2:cp :      0.16s CPU      0.17s WALL (     546 calls)
     cegterg      :      8.27s CPU      8.86s WALL (     266 calls)

     Called by *egterg:
     cdiaghg      :      0.35s CPU      0.36s WALL (    1346 calls)
     h_psi        :      5.41s CPU      5.90s WALL (    1374 calls)
     s_psi        :      0.71s CPU      0.75s WALL (    1374 calls)
     g_psi        :      0.03s CPU      0.03s WALL (    1094 calls)

     Called by h_psi:
     h_psi:calbec :      0.72s CPU      0.81s WALL (    1374 calls)
     vloc_psi     :      3.98s CPU      4.32s WALL (    1374 calls)
     add_vuspsi   :      0.69s CPU      0.75s WALL (    1374 calls)

     General routines
     calbec       :      0.97s CPU      1.08s WALL (    1640 calls)
     fft          :      0.31s CPU      0.31s WALL (     210 calls)
     ffts         :      0.01s CPU      0.01s WALL (      19 calls)
     fftw         :      4.33s CPU      4.70s WALL (   31056 calls)

     Parallel routines

     PWSCF        :     14.86s CPU     15.73s WALL


   This run was terminated on:  11: 8:20  30Jan2023            

=------------------------------------------------------------------------------=
   JOB DONE.
=------------------------------------------------------------------------------=
