
     Program PWSCF v.7.1 starts on 30Jan2023 at 11:10:20 

     This program is part of the open-source Quantum ESPRESSO suite
     for quantum simulation of materials; please cite
         "P. Giannozzi et al., J. Phys.:Condens. Matter 21 395502 (2009);
         "P. Giannozzi et al., J. Phys.:Condens. Matter 29 465901 (2017);
         "P. Giannozzi et al., J. Chem. Phys. 152 154105 (2020);
          URL http://www.quantum-espresso.org", 
     in publications or presentations arising from this work. More details at
     http://www.quantum-espresso.org/quote

     Parallel version (MPI), running on    12 processors

     MPI processes distributed on     1 nodes
     122195 MiB available memory on the printing compute node when the environment starts

     Waiting for input...
     Reading input from standard input

     Current dimensions of program PWSCF are:
     Max number of different atomic species (ntypx) = 10
     Max number of k-points (npk) =  40000
     Max angular momentum in pseudopotentials (lmaxx) =  4
     file W.pbe-spn-kjpaw_psl.1.0.0.UPF: wavefunction(s)  6S 5P 5D renormalized
     file S.pbe-n-kjpaw_psl.1.0.0.UPF: wavefunction(s)  3S 3P renormalized
     file Se.pbe-dn-kjpaw_psl.1.0.0.UPF: wavefunction(s)  4S 4P 3D renormalized
     Message from routine setup:
     using ibrav=0 with symmetry is DISCOURAGED, use correct ibrav instead

     R & G space division:  proc/nbgrp/npool/nimage =      12
     Subspace diagonalization in iterative solution of the eigenvalue problem:
     a serial algorithm will be used


     Parallelization info
     --------------------
     sticks:   dense  smooth     PW     G-vecs:    dense   smooth      PW
     Min          49      49     15                 7805     7805    1255
     Max          50      50     16                 7840     7840    1268
     Sum         595     595    187                93827    93827   15121

     Using Slab Decomposition



     bravais-lattice index     =            0
     lattice parameter (alat)  =       6.0471  a.u.
     unit-cell volume          =    1496.1227 (a.u.)^3
     number of atoms/cell      =            3
     number of atomic types    =            3
     number of electrons       =        36.00
     number of Kohn-Sham states=           18
     kinetic-energy cutoff     =      60.0000  Ry
     charge density cutoff     =     240.0000  Ry
     scf convergence threshold =      1.0E-08
     mixing beta               =       0.5000
     number of iterations used =            8  plain     mixing
     Exchange-correlation= SLA  PW   PBX  PBC
                           (   1   4   3   4   0   0   0)

     celldm(1)=   6.047124  celldm(2)=   0.000000  celldm(3)=   0.000000
     celldm(4)=   0.000000  celldm(5)=   0.000000  celldm(6)=   0.000000

     crystal axes: (cart. coord. in units of alat)
               a(1) = (   1.000000   0.000000   0.000000 )  
               a(2) = (  -0.500000   0.866025   0.000000 )  
               a(3) = (   0.000000   0.000000   7.812500 )  

     reciprocal axes: (cart. coord. in units 2 pi/alat)
               b(1) = (  1.000000  0.577350 -0.000000 )  
               b(2) = (  0.000000  1.154701  0.000000 )  
               b(3) = (  0.000000 -0.000000  0.128000 )  


     PseudoPot. # 1 for W  read from file:
     /home/mainadmin/research/danu/pseudo/W.pbe-spn-kjpaw_psl.1.0.0.UPF
     MD5 check sum: 03c3df5b60893f488392c7401945500a
     Pseudo is Projector augmented-wave + core cor, Zval = 14.0
     Generated using &quot;atomic&quot; code by A. Dal Corso  v.6.2.2
     Shape of augmentation charge: PSQ
     Using radial grid of 1273 points,  6 beta functions with: 
                l(1) =   0
                l(2) =   0
                l(3) =   1
                l(4) =   1
                l(5) =   2
                l(6) =   2
     Q(r) pseudized with 0 coefficients 


     PseudoPot. # 2 for S  read from file:
     /home/mainadmin/research/danu/pseudo/S.pbe-n-kjpaw_psl.1.0.0.UPF
     MD5 check sum: fb45dfebcf3e72a4e1bd4a866ec2e262
     Pseudo is Projector augmented-wave + core cor, Zval =  6.0
     Generated using &quot;atomic&quot; code by A. Dal Corso  v.6.3
     Shape of augmentation charge: PSQ
     Using radial grid of 1151 points,  6 beta functions with: 
                l(1) =   0
                l(2) =   0
                l(3) =   1
                l(4) =   1
                l(5) =   2
                l(6) =   2
     Q(r) pseudized with 0 coefficients 


     PseudoPot. # 3 for Se read from file:
     /home/mainadmin/research/danu/pseudo/Se.pbe-dn-kjpaw_psl.1.0.0.UPF
     MD5 check sum: ac240dd2bae32a30e0bf3a38df9c8785
     Pseudo is Projector augmented-wave + core cor, Zval = 16.0
     Generated using &quot;atomic&quot; code by A. Dal Corso  v.6.3
     Shape of augmentation charge: PSQ
     Using radial grid of 1211 points,  6 beta functions with: 
                l(1) =   0
                l(2) =   0
                l(3) =   1
                l(4) =   1
                l(5) =   2
                l(6) =   2
     Q(r) pseudized with 0 coefficients 


     atomic species   valence    mass     pseudopotential
        W             14.00   183.84000     W ( 1.00)
        S              6.00    32.06500     S ( 1.00)
        Se            16.00    78.96000     Se( 1.00)

      6 Sym. Ops. (no inversion) found



   Cartesian axes

     site n.     atom                  positions (alat units)
         1           Se  tau(   1) = (   0.5000000   0.2886751   4.5312500  )
         2           W   tau(   2) = (  -0.0000000   0.5773503   3.9062500  )
         3           S   tau(   3) = (   0.5000000   0.2886751  -4.5312500  )

     number of k points=    27
                       cart. coord. in units 2pi/alat
        k(    1) = (   0.0000000   0.0000000   0.0000000), wk =   0.0088889
        k(    2) = (   0.0000000   0.0769800   0.0000000), wk =   0.0533333
        k(    3) = (   0.0000000   0.1539601   0.0000000), wk =   0.0533333
        k(    4) = (   0.0000000   0.2309401   0.0000000), wk =   0.0533333
        k(    5) = (   0.0000000   0.3079201   0.0000000), wk =   0.0533333
        k(    6) = (   0.0000000   0.3849002   0.0000000), wk =   0.0533333
        k(    7) = (   0.0000000   0.4618802   0.0000000), wk =   0.0533333
        k(    8) = (   0.0000000   0.5388603   0.0000000), wk =   0.0533333
        k(    9) = (   0.0666667   0.1154701   0.0000000), wk =   0.0533333
        k(   10) = (   0.0666667   0.1924501   0.0000000), wk =   0.1066667
        k(   11) = (   0.0666667   0.2694301   0.0000000), wk =   0.1066667
        k(   12) = (   0.0666667   0.3464102   0.0000000), wk =   0.1066667
        k(   13) = (   0.0666667   0.4233902   0.0000000), wk =   0.1066667
        k(   14) = (   0.0666667   0.5003702   0.0000000), wk =   0.1066667
        k(   15) = (   0.0666667   0.5773503   0.0000000), wk =   0.0533333
        k(   16) = (   0.1333333   0.2309401   0.0000000), wk =   0.0533333
        k(   17) = (   0.1333333   0.3079201   0.0000000), wk =   0.1066667
        k(   18) = (   0.1333333   0.3849002   0.0000000), wk =   0.1066667
        k(   19) = (   0.1333333   0.4618802   0.0000000), wk =   0.1066667
        k(   20) = (   0.1333333   0.5388603   0.0000000), wk =   0.1066667
        k(   21) = (   0.2000000   0.3464102   0.0000000), wk =   0.0533333
        k(   22) = (   0.2000000   0.4233902   0.0000000), wk =   0.1066667
        k(   23) = (   0.2000000   0.5003702   0.0000000), wk =   0.1066667
        k(   24) = (   0.2000000   0.5773503   0.0000000), wk =   0.0533333
        k(   25) = (   0.2666667   0.4618802   0.0000000), wk =   0.0533333
        k(   26) = (   0.2666667   0.5388603   0.0000000), wk =   0.1066667
        k(   27) = (   0.3333333   0.5773503   0.0000000), wk =   0.0177778

     Dense  grid:    93827 G-vectors     FFT dimensions: (  30,  30, 240)

     Estimated max dynamical RAM per process >      39.36 MB

     Estimated total dynamical RAM >     472.29 MB

     Check: negative core charge=   -0.000001

     Initial potential from superposition of free atoms

     starting charge      35.9993, renormalised to      36.0000

     negative rho (up, down):  5.774E-04 0.000E+00
     Starting wfcs are   26 randomized atomic wfcs
     Checking if some PAW data can be deallocated... 

     total cpu time spent up to now is        1.5 secs

     Self-consistent Calculation

     iteration #  1     ecut=    60.00 Ry     beta= 0.50
     Davidson diagonalization with overlap
     ethr =  1.00E-02,  avg # of iterations =  2.0

     Threshold (ethr) on eigenvalues was too large:
     Diagonalizing with lowered threshold

     Davidson diagonalization with overlap
     ethr =  4.62E-04,  avg # of iterations =  2.2

     negative rho (up, down):  1.037E-03 0.000E+00

     total cpu time spent up to now is        3.6 secs

     total energy              =   -1228.30567203 Ry
     estimated scf accuracy    <       0.16889444 Ry

     iteration #  2     ecut=    60.00 Ry     beta= 0.50
     Davidson diagonalization with overlap
     ethr =  4.69E-04,  avg # of iterations =  8.3

     negative rho (up, down):  1.271E-03 0.000E+00

     total cpu time spent up to now is        5.3 secs

     total energy              =   -1228.07541171 Ry
     estimated scf accuracy    <       4.14218881 Ry

     iteration #  3     ecut=    60.00 Ry     beta= 0.50
     Davidson diagonalization with overlap
     ethr =  4.69E-04,  avg # of iterations =  7.7

     negative rho (up, down):  3.700E-03 0.000E+00

     total cpu time spent up to now is        6.9 secs

     total energy              =   -1228.37203758 Ry
     estimated scf accuracy    <       0.04735263 Ry

     iteration #  4     ecut=    60.00 Ry     beta= 0.50
     Davidson diagonalization with overlap
     ethr =  1.32E-04,  avg # of iterations =  4.8

     negative rho (up, down):  6.875E-03 0.000E+00

     total cpu time spent up to now is        8.2 secs

     total energy              =   -1228.37458595 Ry
     estimated scf accuracy    <       0.10136596 Ry

     iteration #  5     ecut=    60.00 Ry     beta= 0.50
     Davidson diagonalization with overlap
     ethr =  1.32E-04,  avg # of iterations =  3.7

     negative rho (up, down):  1.544E-02 0.000E+00

     total cpu time spent up to now is        9.4 secs

     total energy              =   -1228.38478029 Ry
     estimated scf accuracy    <       0.01671659 Ry

     iteration #  6     ecut=    60.00 Ry     beta= 0.50
     Davidson diagonalization with overlap
     ethr =  4.64E-05,  avg # of iterations =  4.0

     negative rho (up, down):  3.362E-03 0.000E+00

     total cpu time spent up to now is       10.7 secs

     total energy              =   -1228.36945645 Ry
     estimated scf accuracy    <       0.01701401 Ry

     iteration #  7     ecut=    60.00 Ry     beta= 0.50
     Davidson diagonalization with overlap
     ethr =  4.64E-05,  avg # of iterations =  4.7

     negative rho (up, down):  6.890E-03 0.000E+00

     total cpu time spent up to now is       12.0 secs

     total energy              =   -1228.38063079 Ry
     estimated scf accuracy    <       0.02531232 Ry

     iteration #  8     ecut=    60.00 Ry     beta= 0.50
     Davidson diagonalization with overlap
     ethr =  4.64E-05,  avg # of iterations =  2.0

     negative rho (up, down):  1.940E-03 0.000E+00

     total cpu time spent up to now is       13.1 secs

     total energy              =   -1228.37755381 Ry
     estimated scf accuracy    <       0.01684170 Ry

     iteration #  9     ecut=    60.00 Ry     beta= 0.50
     Davidson diagonalization with overlap
     ethr =  4.64E-05,  avg # of iterations =  2.0

     negative rho (up, down):  8.139E-04 0.000E+00

     total cpu time spent up to now is       14.3 secs

     total energy              =   -1228.37814495 Ry
     estimated scf accuracy    <       0.00737328 Ry

     iteration # 10     ecut=    60.00 Ry     beta= 0.50
     Davidson diagonalization with overlap
     ethr =  2.05E-05,  avg # of iterations =  4.0

     negative rho (up, down):  7.615E-04 0.000E+00

     total cpu time spent up to now is       15.5 secs

     total energy              =   -1228.37919720 Ry
     estimated scf accuracy    <       0.00062821 Ry

     iteration # 11     ecut=    60.00 Ry     beta= 0.50
     Davidson diagonalization with overlap
     ethr =  1.75E-06,  avg # of iterations =  5.0

     negative rho (up, down):  7.616E-04 0.000E+00

     total cpu time spent up to now is       16.8 secs

     total energy              =   -1228.37913870 Ry
     estimated scf accuracy    <       0.00073479 Ry

     iteration # 12     ecut=    60.00 Ry     beta= 0.50
     Davidson diagonalization with overlap
     ethr =  1.75E-06,  avg # of iterations =  4.3

     negative rho (up, down):  7.446E-04 0.000E+00

     total cpu time spent up to now is       18.1 secs

     total energy              =   -1228.37926898 Ry
     estimated scf accuracy    <       0.00027863 Ry

     iteration # 13     ecut=    60.00 Ry     beta= 0.50
     Davidson diagonalization with overlap
     ethr =  7.74E-07,  avg # of iterations =  1.8

     negative rho (up, down):  7.421E-04 0.000E+00

     total cpu time spent up to now is       19.1 secs

     total energy              =   -1228.37924566 Ry
     estimated scf accuracy    <       0.00012058 Ry

     iteration # 14     ecut=    60.00 Ry     beta= 0.50
     Davidson diagonalization with overlap
     ethr =  3.35E-07,  avg # of iterations =  4.7

     negative rho (up, down):  7.440E-04 0.000E+00

     total cpu time spent up to now is       20.5 secs

     total energy              =   -1228.37928385 Ry
     estimated scf accuracy    <       0.00011146 Ry

     iteration # 15     ecut=    60.00 Ry     beta= 0.50
     Davidson diagonalization with overlap
     ethr =  3.10E-07,  avg # of iterations =  1.0

     negative rho (up, down):  7.445E-04 0.000E+00

     total cpu time spent up to now is       21.4 secs

     total energy              =   -1228.37927597 Ry
     estimated scf accuracy    <       0.00008213 Ry

     iteration # 16     ecut=    60.00 Ry     beta= 0.50
     Davidson diagonalization with overlap
     ethr =  2.28E-07,  avg # of iterations =  2.0

     negative rho (up, down):  7.446E-04 0.000E+00

     total cpu time spent up to now is       22.5 secs

     total energy              =   -1228.37927580 Ry
     estimated scf accuracy    <       0.00002826 Ry

     iteration # 17     ecut=    60.00 Ry     beta= 0.50
     Davidson diagonalization with overlap
     ethr =  7.85E-08,  avg # of iterations =  3.9

     negative rho (up, down):  7.452E-04 0.000E+00

     total cpu time spent up to now is       23.7 secs

     total energy              =   -1228.37927865 Ry
     estimated scf accuracy    <       0.00000151 Ry

     iteration # 18     ecut=    60.00 Ry     beta= 0.50
     Davidson diagonalization with overlap
     ethr =  4.19E-09,  avg # of iterations =  7.7

     negative rho (up, down):  7.439E-04 0.000E+00

     total cpu time spent up to now is       25.4 secs

     total energy              =   -1228.37928117 Ry
     estimated scf accuracy    <       0.00001285 Ry

     iteration # 19     ecut=    60.00 Ry     beta= 0.50
     Davidson diagonalization with overlap
     ethr =  4.19E-09,  avg # of iterations =  1.0

     negative rho (up, down):  7.463E-04 0.000E+00

     total cpu time spent up to now is       26.3 secs

     total energy              =   -1228.37928010 Ry
     estimated scf accuracy    <       0.00001369 Ry

     iteration # 20     ecut=    60.00 Ry     beta= 0.50
     Davidson diagonalization with overlap
     ethr =  4.19E-09,  avg # of iterations =  2.8

     negative rho (up, down):  7.460E-04 0.000E+00

     total cpu time spent up to now is       27.5 secs

     total energy              =   -1228.37927895 Ry
     estimated scf accuracy    <       0.00000802 Ry

     iteration # 21     ecut=    60.00 Ry     beta= 0.50
     Davidson diagonalization with overlap
     ethr =  4.19E-09,  avg # of iterations =  5.3

     negative rho (up, down):  7.459E-04 0.000E+00

     total cpu time spent up to now is       28.8 secs

     total energy              =   -1228.37927971 Ry
     estimated scf accuracy    <       0.00000006 Ry

     iteration # 22     ecut=    60.00 Ry     beta= 0.50
     Davidson diagonalization with overlap
     ethr =  1.78E-10,  avg # of iterations =  5.6

     negative rho (up, down):  7.466E-04 0.000E+00

     total cpu time spent up to now is       30.3 secs

     total energy              =   -1228.37927973 Ry
     estimated scf accuracy    <       0.00000005 Ry

     iteration # 23     ecut=    60.00 Ry     beta= 0.50
     Davidson diagonalization with overlap
     ethr =  1.47E-10,  avg # of iterations =  4.4

     negative rho (up, down):  7.467E-04 0.000E+00

     total cpu time spent up to now is       31.6 secs

     total energy              =   -1228.37927973 Ry
     estimated scf accuracy    <       0.00000005 Ry

     iteration # 24     ecut=    60.00 Ry     beta= 0.50
     Davidson diagonalization with overlap
     ethr =  1.42E-10,  avg # of iterations =  3.0

     negative rho (up, down):  7.471E-04 0.000E+00

     total cpu time spent up to now is       32.7 secs

     End of self-consistent calculation

          k = 0.0000 0.0000 0.0000 ( 11811 PWs)   bands (ev):

   -75.2382 -48.4209 -48.4209 -48.4175 -48.4160 -48.4160 -39.4088 -39.1503
   -39.1503 -14.9933 -13.8030  -6.8568  -3.7196  -2.1969  -1.8502  -1.8502
    -0.7804  -0.7804

          k = 0.0000 0.0770 0.0000 ( 11801 PWs)   bands (ev):

   -75.2376 -48.4209 -48.4206 -48.4173 -48.4161 -48.4161 -39.4070 -39.1620
   -39.1532 -14.9299 -13.7540  -6.7574  -3.7342  -2.1584  -2.0478  -1.7785
    -0.9433  -0.8943

          k = 0.0000 0.1540 0.0000 ( 11801 PWs)   bands (ev):

   -75.2359 -48.4210 -48.4200 -48.4169 -48.4163 -48.4161 -39.4020 -39.1950
   -39.1611 -14.7443 -13.6105  -6.4716  -3.7833  -2.5915  -2.0622  -1.5798
    -1.4475  -1.1802

          k = 0.0000 0.2309 0.0000 ( 11817 PWs)   bands (ev):

   -75.2334 -48.4211 -48.4191 -48.4168 -48.4162 -48.4160 -39.3946 -39.2432
   -39.1728 -14.4507 -13.3839  -6.0426  -3.8993  -3.3466  -2.2128  -1.9912
    -1.5372  -1.3085

          k = 0.0000 0.3079 0.0000 ( 11769 PWs)   bands (ev):

   -75.2306 -48.4213 -48.4181 -48.4172 -48.4158 -48.4154 -39.3860 -39.2982
   -39.1863 -14.0764 -13.0957  -5.5740  -4.3287  -4.0051  -2.9123  -2.0818
    -1.8845  -1.0691

          k = 0.0000 0.3849 0.0000 ( 11771 PWs)   bands (ev):

   -75.2279 -48.4216 -48.4176 -48.4176 -48.4152 -48.4145 -39.3779 -39.3502
   -39.1991 -13.6677 -12.7820  -5.4794  -4.8975  -4.4187  -3.3042  -2.1825
    -2.1759  -0.9523

          k = 0.0000 0.4619 0.0000 ( 11735 PWs)   bands (ev):

   -75.2257 -48.4218 -48.4179 -48.4174 -48.4145 -48.4138 -39.3907 -39.3714
   -39.2091 -13.2999 -12.4994  -6.0745  -5.1792  -4.4958  -3.4492  -2.3829
    -2.1255  -0.9411

          k = 0.0000 0.5389 0.0000 ( 11700 PWs)   bands (ev):

   -75.2246 -48.4218 -48.4181 -48.4174 -48.4140 -48.4133 -39.4126 -39.3679
   -39.2145 -13.0740 -12.3242  -6.4871  -5.4539  -4.4384  -3.4971  -2.4899
    -1.9924  -0.9585

          k = 0.0667 0.1155 0.0000 ( 11781 PWs)   bands (ev):

   -75.2364 -48.4209 -48.4202 -48.4170 -48.4163 -48.4160 -39.4036 -39.1840
   -39.1589 -14.8054 -13.6578  -6.5643  -3.7646  -2.4155  -2.0872  -1.6489
    -1.3010  -1.0719

          k = 0.0667 0.1925 0.0000 ( 11807 PWs)   bands (ev):

   -75.2344 -48.4210 -48.4195 -48.4167 -48.4165 -48.4160 -39.3974 -39.2236
   -39.1698 -14.5655 -13.4724  -6.2031  -3.8330  -3.0490  -2.0224  -1.9498
    -1.4367  -1.3709

          k = 0.0667 0.2694 0.0000 ( 11778 PWs)   bands (ev):

   -75.2317 -48.4211 -48.4186 -48.4170 -48.4161 -48.4155 -39.3894 -39.2738
   -39.1837 -14.2306 -13.2141  -5.7362  -4.0256  -3.7842  -2.7269  -2.0464
    -1.7263  -1.2114

          k = 0.0667 0.3464 0.0000 ( 11779 PWs)   bands (ev):

   -75.2289 -48.4213 -48.4179 -48.4174 -48.4158 -48.4147 -39.3811 -39.3258
   -39.1983 -13.8363 -12.9108  -5.3453  -4.6883  -4.2095  -3.2684  -2.2122
    -2.0635  -1.0759

          k = 0.0667 0.4234 0.0000 ( 11756 PWs)   bands (ev):

   -75.2265 -48.4214 -48.4178 -48.4175 -48.4151 -48.4140 -39.3741 -39.3705
   -39.2109 -13.4421 -12.6080  -5.7169  -4.9657  -4.4973  -3.4599  -2.4005
    -2.2348  -1.0702

          k = 0.0667 0.5004 0.0000 ( 11698 PWs)   bands (ev):

   -75.2248 -48.4215 -48.4180 -48.4174 -48.4144 -48.4135 -39.4012 -39.3687
   -39.2195 -13.1371 -12.3722  -6.2688  -5.3038  -4.4275  -3.4990  -2.5918
    -2.1622  -1.0991

          k = 0.0667 0.5774 0.0000 ( 11684 PWs)   bands (ev):

   -75.2243 -48.4216 -48.4181 -48.4174 -48.4141 -48.4133 -39.4119 -39.3670
   -39.2225 -13.0199 -12.2806  -6.4821  -5.4534  -4.3954  -3.5010  -2.6650
    -2.0979  -1.1078

          k = 0.1333 0.2309 0.0000 ( 11785 PWs)   bands (ev):

   -75.2321 -48.4209 -48.4189 -48.4169 -48.4163 -48.4155 -39.3906 -39.2633
   -39.1847 -14.2836 -13.2548  -5.7925  -3.9130  -3.6706  -2.6921  -2.0408
    -1.6444  -1.2986

          k = 0.1333 0.3079 0.0000 ( 11778 PWs)   bands (ev):

   -75.2295 -48.4208 -48.4184 -48.4172 -48.4162 -48.4147 -39.3828 -39.3076
   -39.2028 -13.9258 -12.9789  -5.3216  -4.4231  -4.0045  -3.3859  -2.2604
    -1.9860  -1.2107

          k = 0.1333 0.3849 0.0000 ( 11751 PWs)   bands (ev):

   -75.2270 -48.4208 -48.4179 -48.4175 -48.4158 -48.4140 -39.3753 -39.3492
   -39.2204 -13.5383 -12.6803  -5.2870  -4.7963  -4.3840  -3.6570  -2.5433
    -2.3277  -1.2416

          k = 0.1333 0.4619 0.0000 ( 11701 PWs)   bands (ev):

   -75.2251 -48.4209 -48.4178 -48.4176 -48.4151 -48.4135 -39.3816 -39.3694
   -39.2343 -13.1932 -12.4132  -5.8821  -5.0278  -4.4023  -3.6279  -2.8039
    -2.5366  -1.2689

          k = 0.1333 0.5389 0.0000 ( 11683 PWs)   bands (ev):

   -75.2240 -48.4209 -48.4179 -48.4176 -48.4145 -48.4134 -39.3990 -39.3662
   -39.2419 -12.9835 -12.2491  -6.2549  -5.3063  -4.3134  -3.5307  -3.0281
    -2.5782  -1.2358

          k = 0.2000 0.3464 0.0000 ( 11751 PWs)   bands (ev):

   -75.2272 -48.4204 -48.4181 -48.4173 -48.4162 -48.4140 -39.3759 -39.3390
   -39.2264 -13.5722 -12.7055  -5.0016  -4.8335  -4.1674  -3.9158  -2.6534
    -2.3343  -1.2895

          k = 0.2000 0.4234 0.0000 ( 11715 PWs)   bands (ev):

   -75.2252 -48.4202 -48.4180 -48.4174 -48.4159 -48.4135 -39.3700 -39.3636
   -39.2495 -13.2262 -12.4367  -5.4915  -4.7099  -4.4400  -3.9185  -3.0631
    -2.7199  -1.3134

          k = 0.2000 0.5004 0.0000 ( 11694 PWs)   bands (ev):

   -75.2238 -48.4201 -48.4179 -48.4175 -48.4153 -48.4135 -39.3793 -39.3657
   -39.2664 -12.9649 -12.2314  -5.8809  -5.0682  -4.2572  -3.7840  -3.3365
    -3.0614  -1.2190

          k = 0.2000 0.5774 0.0000 ( 11684 PWs)   bands (ev):

   -75.2233 -48.4201 -48.4179 -48.4175 -48.4149 -48.4136 -39.3845 -39.3643
   -39.2726 -12.8662 -12.1530  -6.0296  -5.2010  -4.2163  -3.6365  -3.4768
    -3.2164  -1.1495

          k = 0.2667 0.4619 0.0000 ( 11715 PWs)   bands (ev):

   -75.2238 -48.4197 -48.4181 -48.4172 -48.4158 -48.4135 -39.3677 -39.3653
   -39.2799 -12.9595 -12.2258  -5.6376  -4.9373  -4.2413  -4.0251  -3.5595
    -3.1233  -1.1896

          k = 0.2667 0.5389 0.0000 ( 11693 PWs)   bands (ev):

   -75.2230 -48.4194 -48.4183 -48.4169 -48.4156 -48.4138 -39.3639 -39.3631
   -39.3022 -12.8034 -12.1008  -5.6860  -5.1187  -4.2520  -3.9762  -3.7575
    -3.4210  -1.0198

          k = 0.3333 0.5774 0.0000 ( 11694 PWs)   bands (ev):

   -75.2227 -48.4189 -48.4185 -48.4163 -48.4161 -48.4140 -39.3623 -39.3409
   -39.3323 -12.7449 -12.0531  -5.3722  -5.3367  -4.3857  -3.9886  -3.9145
    -3.5116  -0.9045

     highest occupied level (ev):    -0.7804

!    total energy              =   -1228.37927973 Ry
     total all-electron energy =    -37944.469710 Ry
     estimated scf accuracy    <          4.2E-09 Ry

     The total energy is the sum of the following terms:
     one-electron contribution =   -2749.50672378 Ry
     hartree contribution      =    1372.31494303 Ry
     xc contribution           =     -73.23288457 Ry
     ewald contribution        =    1014.62638954 Ry
     one-center paw contrib.   =    -792.58100395 Ry

     convergence has been achieved in  24 iterations

     Writing all to output data dir ./work/WSSe.save/

     init_run     :      1.21s CPU      1.26s WALL (       1 calls)
     electrons    :     29.65s CPU     31.23s WALL (       1 calls)

     Called by init_run:
     wfcinit      :      0.44s CPU      0.46s WALL (       1 calls)
     potinit      :      0.22s CPU      0.23s WALL (       1 calls)
     hinit0       :      0.45s CPU      0.45s WALL (       1 calls)

     Called by electrons:
     c_bands      :     21.74s CPU     23.06s WALL (      25 calls)
     sum_band     :      4.65s CPU      4.89s WALL (      25 calls)
     v_of_rho     :      0.14s CPU      0.15s WALL (      25 calls)
     newd         :      1.78s CPU      1.80s WALL (      25 calls)
     PAW_pot      :      1.33s CPU      1.36s WALL (      25 calls)
     mix_rho      :      0.08s CPU      0.08s WALL (      25 calls)

     Called by c_bands:
     init_us_2    :      0.40s CPU      0.42s WALL (    1377 calls)
     init_us_2:cp :      0.40s CPU      0.42s WALL (    1377 calls)
     cegterg      :     20.65s CPU     21.94s WALL (     675 calls)

     Called by *egterg:
     cdiaghg      :      0.85s CPU      0.88s WALL (    3286 calls)
     h_psi        :     13.56s CPU     14.65s WALL (    3340 calls)
     s_psi        :      1.77s CPU      1.86s WALL (    3340 calls)
     g_psi        :      0.07s CPU      0.08s WALL (    2638 calls)

     Called by h_psi:
     h_psi:calbec :      1.79s CPU      1.98s WALL (    3340 calls)
     vloc_psi     :     10.00s CPU     10.77s WALL (    3340 calls)
     add_vuspsi   :      1.72s CPU      1.86s WALL (    3340 calls)

     General routines
     calbec       :      2.41s CPU      2.66s WALL (    4015 calls)
     fft          :      0.33s CPU      0.34s WALL (     276 calls)
     ffts         :      0.01s CPU      0.01s WALL (      25 calls)
     fftw         :     10.92s CPU     11.76s WALL (   77820 calls)

     Parallel routines

     PWSCF        :     31.14s CPU     32.84s WALL


   This run was terminated on:  11:10:53  30Jan2023            

=------------------------------------------------------------------------------=
   JOB DONE.
=------------------------------------------------------------------------------=
