
     Program PWSCF v.7.1 starts on 30Jan2023 at 11: 7:28 

     This program is part of the open-source Quantum ESPRESSO suite
     for quantum simulation of materials; please cite
         "P. Giannozzi et al., J. Phys.:Condens. Matter 21 395502 (2009);
         "P. Giannozzi et al., J. Phys.:Condens. Matter 29 465901 (2017);
         "P. Giannozzi et al., J. Chem. Phys. 152 154105 (2020);
          URL http://www.quantum-espresso.org", 
     in publications or presentations arising from this work. More details at
     http://www.quantum-espresso.org/quote

     Parallel version (MPI), running on    12 processors

     MPI processes distributed on     1 nodes
     122251 MiB available memory on the printing compute node when the environment starts

     Waiting for input...
     Reading input from standard input

     Current dimensions of program PWSCF are:
     Max number of different atomic species (ntypx) = 10
     Max number of k-points (npk) =  40000
     Max angular momentum in pseudopotentials (lmaxx) =  4
     file W.pbe-spn-kjpaw_psl.1.0.0.UPF: wavefunction(s)  6S 5P 5D renormalized
     file S.pbe-n-kjpaw_psl.1.0.0.UPF: wavefunction(s)  3S 3P renormalized
     file Se.pbe-dn-kjpaw_psl.1.0.0.UPF: wavefunction(s)  4S 4P 3D renormalized
     Message from routine setup:
     using ibrav=0 with symmetry is DISCOURAGED, use correct ibrav instead

     R & G space division:  proc/nbgrp/npool/nimage =      12
     Subspace diagonalization in iterative solution of the eigenvalue problem:
     a serial algorithm will be used


     Parallelization info
     --------------------
     sticks:   dense  smooth     PW     G-vecs:    dense   smooth      PW
     Min          49      49     14                 7803     7803    1233
     Max          50      50     19                 7838     7838    1244
     Sum         595     595    187                93827    93827   14845

     Using Slab Decomposition



     bravais-lattice index     =            0
     lattice parameter (alat)  =       6.0471  a.u.
     unit-cell volume          =    1496.1227 (a.u.)^3
     number of atoms/cell      =            3
     number of atomic types    =            3
     number of electrons       =        36.00
     number of Kohn-Sham states=           18
     kinetic-energy cutoff     =      60.0000  Ry
     charge density cutoff     =     240.0000  Ry
     scf convergence threshold =      1.0E-08
     mixing beta               =       0.5000
     number of iterations used =            8  plain     mixing
     Exchange-correlation= SLA  PW   PBX  PBC
                           (   1   4   3   4   0   0   0)

     celldm(1)=   6.047124  celldm(2)=   0.000000  celldm(3)=   0.000000
     celldm(4)=   0.000000  celldm(5)=   0.000000  celldm(6)=   0.000000

     crystal axes: (cart. coord. in units of alat)
               a(1) = (   1.000000   0.000000   0.000000 )  
               a(2) = (  -0.500000   0.866025   0.000000 )  
               a(3) = (   0.000000   0.000000   7.812500 )  

     reciprocal axes: (cart. coord. in units 2 pi/alat)
               b(1) = (  1.000000  0.577350 -0.000000 )  
               b(2) = (  0.000000  1.154701  0.000000 )  
               b(3) = (  0.000000 -0.000000  0.128000 )  


     PseudoPot. # 1 for W  read from file:
     /home/mainadmin/research/danu/pseudo/W.pbe-spn-kjpaw_psl.1.0.0.UPF
     MD5 check sum: 03c3df5b60893f488392c7401945500a
     Pseudo is Projector augmented-wave + core cor, Zval = 14.0
     Generated using &quot;atomic&quot; code by A. Dal Corso  v.6.2.2
     Shape of augmentation charge: PSQ
     Using radial grid of 1273 points,  6 beta functions with: 
                l(1) =   0
                l(2) =   0
                l(3) =   1
                l(4) =   1
                l(5) =   2
                l(6) =   2
     Q(r) pseudized with 0 coefficients 


     PseudoPot. # 2 for S  read from file:
     /home/mainadmin/research/danu/pseudo/S.pbe-n-kjpaw_psl.1.0.0.UPF
     MD5 check sum: fb45dfebcf3e72a4e1bd4a866ec2e262
     Pseudo is Projector augmented-wave + core cor, Zval =  6.0
     Generated using &quot;atomic&quot; code by A. Dal Corso  v.6.3
     Shape of augmentation charge: PSQ
     Using radial grid of 1151 points,  6 beta functions with: 
                l(1) =   0
                l(2) =   0
                l(3) =   1
                l(4) =   1
                l(5) =   2
                l(6) =   2
     Q(r) pseudized with 0 coefficients 


     PseudoPot. # 3 for Se read from file:
     /home/mainadmin/research/danu/pseudo/Se.pbe-dn-kjpaw_psl.1.0.0.UPF
     MD5 check sum: ac240dd2bae32a30e0bf3a38df9c8785
     Pseudo is Projector augmented-wave + core cor, Zval = 16.0
     Generated using &quot;atomic&quot; code by A. Dal Corso  v.6.3
     Shape of augmentation charge: PSQ
     Using radial grid of 1211 points,  6 beta functions with: 
                l(1) =   0
                l(2) =   0
                l(3) =   1
                l(4) =   1
                l(5) =   2
                l(6) =   2
     Q(r) pseudized with 0 coefficients 


     atomic species   valence    mass     pseudopotential
        W             14.00   183.84000     W ( 1.00)
        S              6.00    32.06500     S ( 1.00)
        Se            16.00    78.96000     Se( 1.00)

      6 Sym. Ops. (no inversion) found



   Cartesian axes

     site n.     atom                  positions (alat units)
         1           Se  tau(   1) = (   0.5000000   0.2886751   4.5312500  )
         2           W   tau(   2) = (  -0.0000000   0.5773503   3.9062500  )
         3           S   tau(   3) = (   0.5000000   0.2886751  -4.5312500  )

     number of k points=    10
                       cart. coord. in units 2pi/alat
        k(    1) = (   0.0000000   0.0000000   0.0000000), wk =   0.0312500
        k(    2) = (   0.0000000   0.1443376   0.0000000), wk =   0.1875000
        k(    3) = (   0.0000000   0.2886751   0.0000000), wk =   0.1875000
        k(    4) = (   0.0000000   0.4330127   0.0000000), wk =   0.1875000
        k(    5) = (   0.0000000  -0.5773503   0.0000000), wk =   0.0937500
        k(    6) = (   0.1250000   0.2165064   0.0000000), wk =   0.1875000
        k(    7) = (   0.1250000   0.3608439   0.0000000), wk =   0.3750000
        k(    8) = (   0.1250000   0.5051815   0.0000000), wk =   0.3750000
        k(    9) = (   0.2500000   0.4330127   0.0000000), wk =   0.1875000
        k(   10) = (   0.2500000   0.5773503   0.0000000), wk =   0.1875000

     Dense  grid:    93827 G-vectors     FFT dimensions: (  30,  30, 240)

     Estimated max dynamical RAM per process >      34.78 MB

     Estimated total dynamical RAM >     417.41 MB

     Check: negative core charge=   -0.000001

     Initial potential from superposition of free atoms

     starting charge      35.9993, renormalised to      36.0000

     negative rho (up, down):  5.774E-04 0.000E+00
     Starting wfcs are   26 randomized atomic wfcs
     Checking if some PAW data can be deallocated... 

     total cpu time spent up to now is        1.2 secs

     Self-consistent Calculation

     iteration #  1     ecut=    60.00 Ry     beta= 0.50
     Davidson diagonalization with overlap
     ethr =  1.00E-02,  avg # of iterations =  2.0

     Threshold (ethr) on eigenvalues was too large:
     Diagonalizing with lowered threshold

     Davidson diagonalization with overlap
     ethr =  4.60E-04,  avg # of iterations =  2.1

     negative rho (up, down):  1.145E-03 0.000E+00

     total cpu time spent up to now is        2.1 secs

     total energy              =   -1228.30602558 Ry
     estimated scf accuracy    <       0.16836843 Ry

     iteration #  2     ecut=    60.00 Ry     beta= 0.50
     Davidson diagonalization with overlap
     ethr =  4.68E-04,  avg # of iterations =  8.1

     negative rho (up, down):  1.424E-03 0.000E+00

     total cpu time spent up to now is        2.9 secs

     total energy              =   -1228.08190858 Ry
     estimated scf accuracy    <       4.04545593 Ry

     iteration #  3     ecut=    60.00 Ry     beta= 0.50
     Davidson diagonalization with overlap
     ethr =  4.68E-04,  avg # of iterations =  7.7

     negative rho (up, down):  4.399E-03 0.000E+00

     total cpu time spent up to now is        3.6 secs

     total energy              =   -1228.37210589 Ry
     estimated scf accuracy    <       0.05140492 Ry

     iteration #  4     ecut=    60.00 Ry     beta= 0.50
     Davidson diagonalization with overlap
     ethr =  1.43E-04,  avg # of iterations =  4.4

     negative rho (up, down):  8.108E-03 0.000E+00

     total cpu time spent up to now is        4.3 secs

     total energy              =   -1228.37568900 Ry
     estimated scf accuracy    <       0.09220597 Ry

     iteration #  5     ecut=    60.00 Ry     beta= 0.50
     Davidson diagonalization with overlap
     ethr =  1.43E-04,  avg # of iterations =  3.5

     negative rho (up, down):  1.545E-02 0.000E+00

     total cpu time spent up to now is        4.9 secs

     total energy              =   -1228.38559246 Ry
     estimated scf accuracy    <       0.01623140 Ry

     iteration #  6     ecut=    60.00 Ry     beta= 0.50
     Davidson diagonalization with overlap
     ethr =  4.51E-05,  avg # of iterations =  3.7

     negative rho (up, down):  4.560E-03 0.000E+00

     total cpu time spent up to now is        5.4 secs

     total energy              =   -1228.37008754 Ry
     estimated scf accuracy    <       0.01663520 Ry

     iteration #  7     ecut=    60.00 Ry     beta= 0.50
     Davidson diagonalization with overlap
     ethr =  4.51E-05,  avg # of iterations =  5.3

     negative rho (up, down):  7.235E-03 0.000E+00

     total cpu time spent up to now is        6.1 secs

     total energy              =   -1228.38348439 Ry
     estimated scf accuracy    <       0.04694401 Ry

     iteration #  8     ecut=    60.00 Ry     beta= 0.50
     Davidson diagonalization with overlap
     ethr =  4.51E-05,  avg # of iterations =  1.9

     negative rho (up, down):  1.689E-03 0.000E+00

     total cpu time spent up to now is        6.7 secs

     total energy              =   -1228.37742089 Ry
     estimated scf accuracy    <       0.03918289 Ry

     iteration #  9     ecut=    60.00 Ry     beta= 0.50
     Davidson diagonalization with overlap
     ethr =  4.51E-05,  avg # of iterations =  2.6

     negative rho (up, down):  7.886E-04 0.000E+00

     total cpu time spent up to now is        7.2 secs

     total energy              =   -1228.37711146 Ry
     estimated scf accuracy    <       0.01733394 Ry

     iteration # 10     ecut=    60.00 Ry     beta= 0.50
     Davidson diagonalization with overlap
     ethr =  4.51E-05,  avg # of iterations =  3.3

     negative rho (up, down):  7.388E-04 0.000E+00

     total cpu time spent up to now is        7.8 secs

     total energy              =   -1228.37889422 Ry
     estimated scf accuracy    <       0.00078326 Ry

     iteration # 11     ecut=    60.00 Ry     beta= 0.50
     Davidson diagonalization with overlap
     ethr =  2.18E-06,  avg # of iterations =  6.0

     negative rho (up, down):  7.697E-04 0.000E+00

     total cpu time spent up to now is        8.5 secs

     total energy              =   -1228.37912076 Ry
     estimated scf accuracy    <       0.00124444 Ry

     iteration # 12     ecut=    60.00 Ry     beta= 0.50
     Davidson diagonalization with overlap
     ethr =  2.18E-06,  avg # of iterations =  3.5

     negative rho (up, down):  7.563E-04 0.000E+00

     total cpu time spent up to now is        9.1 secs

     total energy              =   -1228.37922038 Ry
     estimated scf accuracy    <       0.00002947 Ry

     iteration # 13     ecut=    60.00 Ry     beta= 0.50
     Davidson diagonalization with overlap
     ethr =  8.19E-08,  avg # of iterations =  7.8

     negative rho (up, down):  7.459E-04 0.000E+00

     total cpu time spent up to now is        9.9 secs

     total energy              =   -1228.37923518 Ry
     estimated scf accuracy    <       0.00019413 Ry

     iteration # 14     ecut=    60.00 Ry     beta= 0.50
     Davidson diagonalization with overlap
     ethr =  8.19E-08,  avg # of iterations =  5.5

     negative rho (up, down):  7.449E-04 0.000E+00

     total cpu time spent up to now is       10.5 secs

     total energy              =   -1228.37925297 Ry
     estimated scf accuracy    <       0.00000138 Ry

     iteration # 15     ecut=    60.00 Ry     beta= 0.50
     Davidson diagonalization with overlap
     ethr =  3.84E-09,  avg # of iterations =  8.8

     negative rho (up, down):  7.461E-04 0.000E+00

     total cpu time spent up to now is       11.4 secs

     total energy              =   -1228.37925335 Ry
     estimated scf accuracy    <       0.00002744 Ry

     iteration # 16     ecut=    60.00 Ry     beta= 0.50
     Davidson diagonalization with overlap
     ethr =  3.84E-09,  avg # of iterations =  5.3

     negative rho (up, down):  7.467E-04 0.000E+00

     total cpu time spent up to now is       12.0 secs

     total energy              =   -1228.37925335 Ry
     estimated scf accuracy    <       0.00000491 Ry

     iteration # 17     ecut=    60.00 Ry     beta= 0.50
     Davidson diagonalization with overlap
     ethr =  3.84E-09,  avg # of iterations =  5.2

     negative rho (up, down):  7.466E-04 0.000E+00

     total cpu time spent up to now is       12.7 secs

     total energy              =   -1228.37925391 Ry
     estimated scf accuracy    <       0.00000001 Ry

     iteration # 18     ecut=    60.00 Ry     beta= 0.50
     Davidson diagonalization with overlap
     ethr =  2.90E-11,  avg # of iterations =  8.6

     negative rho (up, down):  7.461E-04 0.000E+00

     total cpu time spent up to now is       13.5 secs

     total energy              =   -1228.37925392 Ry
     estimated scf accuracy    <       0.00000017 Ry

     iteration # 19     ecut=    60.00 Ry     beta= 0.50
     Davidson diagonalization with overlap
     ethr =  2.90E-11,  avg # of iterations =  5.7

     negative rho (up, down):  7.463E-04 0.000E+00

     total cpu time spent up to now is       14.2 secs

     total energy              =   -1228.37925392 Ry
     estimated scf accuracy    <       0.00000002 Ry

     iteration # 20     ecut=    60.00 Ry     beta= 0.50
     Davidson diagonalization with overlap
     ethr =  2.90E-11,  avg # of iterations =  1.3

     negative rho (up, down):  7.468E-04 0.000E+00

     total cpu time spent up to now is       14.7 secs

     total energy              =   -1228.37925392 Ry
     estimated scf accuracy    <       0.00000001 Ry

     iteration # 21     ecut=    60.00 Ry     beta= 0.50
     Davidson diagonalization with overlap
     ethr =  2.90E-11,  avg # of iterations =  5.5

     negative rho (up, down):  7.467E-04 0.000E+00

     total cpu time spent up to now is       15.4 secs

     End of self-consistent calculation

          k = 0.0000 0.0000 0.0000 ( 11811 PWs)   bands (ev):

   -75.2382 -48.4195 -48.4195 -48.4163 -48.4148 -48.4148 -39.4089 -39.1503
   -39.1503 -14.9924 -13.8019  -6.8564  -3.7189  -2.1966  -1.8498  -1.8498
    -0.7798  -0.7798

          k = 0.0000 0.1443 0.0000 ( 11801 PWs)   bands (ev):

   -75.2362 -48.4196 -48.4187 -48.4158 -48.4151 -48.4148 -39.4029 -39.1898
   -39.1599 -14.7728 -13.6322  -6.5160  -3.7741  -2.5088  -2.0738  -1.6097
    -1.3663  -1.1380

          k = 0.0000 0.2887 0.0000 ( 11777 PWs)   bands (ev):

   -75.2313 -48.4199 -48.4170 -48.4159 -48.4146 -48.4144 -39.3883 -39.2843
   -39.1828 -14.1744 -13.1707  -5.6837  -4.1594  -3.8843  -2.7577  -2.0496
    -1.8008  -1.1190

          k = 0.0000 0.4330 0.0000 ( 11761 PWs)   bands (ev):

   -75.2265 -48.4203 -48.4166 -48.4162 -48.4134 -48.4128 -39.3776 -39.3734
   -39.2057 -13.4260 -12.5960  -5.8452  -5.0469  -4.5140  -3.4107  -2.3157
    -2.1661  -0.9369

          k = 0.0000-0.5774 0.0000 ( 11704 PWs)   bands (ev):

   -75.2245 -48.4205 -48.4169 -48.4161 -48.4126 -48.4121 -39.4155 -39.3676
   -39.2152 -13.0424 -12.2990  -6.5422  -5.4916  -4.4310  -3.5016  -2.5028
    -1.9680  -0.9606

          k = 0.1250 0.2165 0.0000 ( 11775 PWs)   bands (ev):

   -75.2328 -48.4195 -48.4177 -48.4155 -48.4151 -48.4144 -39.3926 -39.2524
   -39.1805 -14.3624 -13.3152  -5.9059  -3.8849  -3.5051  -2.5008  -2.0151
    -1.5655  -1.3319

          k = 0.1250 0.3608 0.0000 ( 11776 PWs)   bands (ev):

   -75.2279 -48.4195 -48.4167 -48.4162 -48.4147 -48.4130 -39.3780 -39.3365
   -39.2131 -13.6737 -12.7844  -5.1802  -4.7928  -4.2562  -3.5791  -2.4245
    -2.2076  -1.2069

          k = 0.1250 0.5052 0.0000 ( 11701 PWs)   bands (ev):

   -75.2245 -48.4196 -48.4166 -48.4163 -48.4133 -48.4122 -39.3948 -39.3676
   -39.2364 -13.0626 -12.3112  -6.1567  -5.2289  -4.3505  -3.5579  -2.8954
    -2.5029  -1.2445

          k = 0.2500 0.4330 0.0000 ( 11731 PWs)   bands (ev):

   -75.2245 -48.4185 -48.4168 -48.4160 -48.4147 -48.4123 -39.3679 -39.3657
   -39.2658 -13.0825 -12.3229  -5.5580  -4.7990  -4.3405  -4.0009  -3.3505
    -2.9292  -1.2693

          k = 0.2500 0.5774 0.0000 ( 11670 PWs)   bands (ev):

   -75.2230 -48.4181 -48.4169 -48.4158 -48.4140 -48.4126 -39.3685 -39.3633
   -39.2974 -12.7999 -12.0979  -5.7767  -5.1369  -4.2398  -3.8927  -3.6961
    -3.4480  -1.0299

     highest occupied level (ev):    -0.7798

!    total energy              =   -1228.37925391 Ry
     total all-electron energy =    -37944.469684 Ry
     estimated scf accuracy    <          9.0E-09 Ry

     The total energy is the sum of the following terms:
     one-electron contribution =   -2749.50567007 Ry
     hartree contribution      =    1372.31394378 Ry
     xc contribution           =     -73.23291364 Ry
     ewald contribution        =    1014.62638954 Ry
     one-center paw contrib.   =    -792.58100352 Ry

     convergence has been achieved in  21 iterations

     Writing all to output data dir ./work/WSSe.save/

     init_run     :      0.87s CPU      0.93s WALL (       1 calls)
     electrons    :     13.49s CPU     14.20s WALL (       1 calls)

     Called by init_run:
     wfcinit      :      0.16s CPU      0.17s WALL (       1 calls)
     potinit      :      0.16s CPU      0.17s WALL (       1 calls)
     hinit0       :      0.46s CPU      0.47s WALL (       1 calls)

     Called by electrons:
     c_bands      :      8.08s CPU      8.63s WALL (      22 calls)
     sum_band     :      2.65s CPU      2.75s WALL (      22 calls)
     v_of_rho     :      0.13s CPU      0.14s WALL (      22 calls)
     newd         :      1.55s CPU      1.59s WALL (      22 calls)
     PAW_pot      :      1.08s CPU      1.13s WALL (      22 calls)
     mix_rho      :      0.07s CPU      0.07s WALL (      22 calls)

     Called by c_bands:
     init_us_2    :      0.14s CPU      0.14s WALL (     450 calls)
     init_us_2:cp :      0.13s CPU      0.14s WALL (     450 calls)
     cegterg      :      7.71s CPU      8.25s WALL (     220 calls)

     Called by *egterg:
     cdiaghg      :      0.34s CPU      0.36s WALL (    1288 calls)
     h_psi        :      4.96s CPU      5.42s WALL (    1308 calls)
     s_psi        :      0.62s CPU      0.66s WALL (    1308 calls)
     g_psi        :      0.03s CPU      0.03s WALL (    1078 calls)

     Called by h_psi:
     h_psi:calbec :      0.64s CPU      0.72s WALL (    1308 calls)
     vloc_psi     :      3.70s CPU      4.02s WALL (    1308 calls)
     add_vuspsi   :      0.60s CPU      0.66s WALL (    1308 calls)

     General routines
     calbec       :      0.84s CPU      0.95s WALL (    1528 calls)
     fft          :      0.32s CPU      0.32s WALL (     243 calls)
     ffts         :      0.01s CPU      0.01s WALL (      22 calls)
     fftw         :      3.98s CPU      4.33s WALL (   27694 calls)

     Parallel routines

     PWSCF        :     14.62s CPU     15.40s WALL


   This run was terminated on:  11: 7:43  30Jan2023            

=------------------------------------------------------------------------------=
   JOB DONE.
=------------------------------------------------------------------------------=
