
     Program PWSCF v.7.1 starts on 30Jan2023 at 11: 6:35 

     This program is part of the open-source Quantum ESPRESSO suite
     for quantum simulation of materials; please cite
         "P. Giannozzi et al., J. Phys.:Condens. Matter 21 395502 (2009);
         "P. Giannozzi et al., J. Phys.:Condens. Matter 29 465901 (2017);
         "P. Giannozzi et al., J. Chem. Phys. 152 154105 (2020);
          URL http://www.quantum-espresso.org", 
     in publications or presentations arising from this work. More details at
     http://www.quantum-espresso.org/quote

     Parallel version (MPI), running on    12 processors

     MPI processes distributed on     1 nodes
     122285 MiB available memory on the printing compute node when the environment starts

     Waiting for input...
     Reading input from standard input

     Current dimensions of program PWSCF are:
     Max number of different atomic species (ntypx) = 10
     Max number of k-points (npk) =  40000
     Max angular momentum in pseudopotentials (lmaxx) =  4
     file W.pbe-spn-kjpaw_psl.1.0.0.UPF: wavefunction(s)  6S 5P 5D renormalized
     file S.pbe-n-kjpaw_psl.1.0.0.UPF: wavefunction(s)  3S 3P renormalized
     file Se.pbe-dn-kjpaw_psl.1.0.0.UPF: wavefunction(s)  4S 4P 3D renormalized
     Message from routine setup:
     using ibrav=0 with symmetry is DISCOURAGED, use correct ibrav instead

     R & G space division:  proc/nbgrp/npool/nimage =      12
     Subspace diagonalization in iterative solution of the eigenvalue problem:
     a serial algorithm will be used


     Parallelization info
     --------------------
     sticks:   dense  smooth     PW     G-vecs:    dense   smooth      PW
     Min          49      49     14                 7805     7805    1194
     Max          50      50     15                 7840     7840    1220
     Sum         595     595    169                93827    93827   14489

     Using Slab Decomposition



     bravais-lattice index     =            0
     lattice parameter (alat)  =       6.0471  a.u.
     unit-cell volume          =    1496.1227 (a.u.)^3
     number of atoms/cell      =            3
     number of atomic types    =            3
     number of electrons       =        36.00
     number of Kohn-Sham states=           18
     kinetic-energy cutoff     =      60.0000  Ry
     charge density cutoff     =     240.0000  Ry
     scf convergence threshold =      1.0E-08
     mixing beta               =       0.5000
     number of iterations used =            8  plain     mixing
     Exchange-correlation= SLA  PW   PBX  PBC
                           (   1   4   3   4   0   0   0)

     celldm(1)=   6.047124  celldm(2)=   0.000000  celldm(3)=   0.000000
     celldm(4)=   0.000000  celldm(5)=   0.000000  celldm(6)=   0.000000

     crystal axes: (cart. coord. in units of alat)
               a(1) = (   1.000000   0.000000   0.000000 )  
               a(2) = (  -0.500000   0.866025   0.000000 )  
               a(3) = (   0.000000   0.000000   7.812500 )  

     reciprocal axes: (cart. coord. in units 2 pi/alat)
               b(1) = (  1.000000  0.577350 -0.000000 )  
               b(2) = (  0.000000  1.154701  0.000000 )  
               b(3) = (  0.000000 -0.000000  0.128000 )  


     PseudoPot. # 1 for W  read from file:
     /home/mainadmin/research/danu/pseudo/W.pbe-spn-kjpaw_psl.1.0.0.UPF
     MD5 check sum: 03c3df5b60893f488392c7401945500a
     Pseudo is Projector augmented-wave + core cor, Zval = 14.0
     Generated using &quot;atomic&quot; code by A. Dal Corso  v.6.2.2
     Shape of augmentation charge: PSQ
     Using radial grid of 1273 points,  6 beta functions with: 
                l(1) =   0
                l(2) =   0
                l(3) =   1
                l(4) =   1
                l(5) =   2
                l(6) =   2
     Q(r) pseudized with 0 coefficients 


     PseudoPot. # 2 for S  read from file:
     /home/mainadmin/research/danu/pseudo/S.pbe-n-kjpaw_psl.1.0.0.UPF
     MD5 check sum: fb45dfebcf3e72a4e1bd4a866ec2e262
     Pseudo is Projector augmented-wave + core cor, Zval =  6.0
     Generated using &quot;atomic&quot; code by A. Dal Corso  v.6.3
     Shape of augmentation charge: PSQ
     Using radial grid of 1151 points,  6 beta functions with: 
                l(1) =   0
                l(2) =   0
                l(3) =   1
                l(4) =   1
                l(5) =   2
                l(6) =   2
     Q(r) pseudized with 0 coefficients 


     PseudoPot. # 3 for Se read from file:
     /home/mainadmin/research/danu/pseudo/Se.pbe-dn-kjpaw_psl.1.0.0.UPF
     MD5 check sum: ac240dd2bae32a30e0bf3a38df9c8785
     Pseudo is Projector augmented-wave + core cor, Zval = 16.0
     Generated using &quot;atomic&quot; code by A. Dal Corso  v.6.3
     Shape of augmentation charge: PSQ
     Using radial grid of 1211 points,  6 beta functions with: 
                l(1) =   0
                l(2) =   0
                l(3) =   1
                l(4) =   1
                l(5) =   2
                l(6) =   2
     Q(r) pseudized with 0 coefficients 


     atomic species   valence    mass     pseudopotential
        W             14.00   183.84000     W ( 1.00)
        S              6.00    32.06500     S ( 1.00)
        Se            16.00    78.96000     Se( 1.00)

      6 Sym. Ops. (no inversion) found



   Cartesian axes

     site n.     atom                  positions (alat units)
         1           Se  tau(   1) = (   0.5000000   0.2886751   4.5312500  )
         2           W   tau(   2) = (  -0.0000000   0.5773503   3.9062500  )
         3           S   tau(   3) = (   0.5000000   0.2886751  -4.5312500  )

     number of k points=     4
                       cart. coord. in units 2pi/alat
        k(    1) = (   0.0000000   0.0000000   0.0000000), wk =   0.1250000
        k(    2) = (   0.0000000   0.2886751   0.0000000), wk =   0.7500000
        k(    3) = (   0.0000000  -0.5773503   0.0000000), wk =   0.3750000
        k(    4) = (   0.2500000   0.4330127   0.0000000), wk =   0.7500000

     Dense  grid:    93827 G-vectors     FFT dimensions: (  30,  30, 240)

     Estimated max dynamical RAM per process >      33.18 MB

     Estimated total dynamical RAM >     398.15 MB

     Check: negative core charge=   -0.000001

     Initial potential from superposition of free atoms

     starting charge      35.9993, renormalised to      36.0000

     negative rho (up, down):  5.774E-04 0.000E+00
     Starting wfcs are   26 randomized atomic wfcs
     Checking if some PAW data can be deallocated... 

     total cpu time spent up to now is        1.1 secs

     Self-consistent Calculation

     iteration #  1     ecut=    60.00 Ry     beta= 0.50
     Davidson diagonalization with overlap
     ethr =  1.00E-02,  avg # of iterations =  2.0

     Threshold (ethr) on eigenvalues was too large:
     Diagonalizing with lowered threshold

     Davidson diagonalization with overlap
     ethr =  4.26E-04,  avg # of iterations =  2.2

     negative rho (up, down):  1.152E-03 0.000E+00

     total cpu time spent up to now is        1.7 secs

     total energy              =   -1228.31087901 Ry
     estimated scf accuracy    <       0.15800614 Ry

     iteration #  2     ecut=    60.00 Ry     beta= 0.50
     Davidson diagonalization with overlap
     ethr =  4.39E-04,  avg # of iterations =  8.0

     negative rho (up, down):  1.537E-03 0.000E+00

     total cpu time spent up to now is        2.1 secs

     total energy              =   -1228.09221407 Ry
     estimated scf accuracy    <       3.83744594 Ry

     iteration #  3     ecut=    60.00 Ry     beta= 0.50
     Davidson diagonalization with overlap
     ethr =  4.39E-04,  avg # of iterations =  7.0

     negative rho (up, down):  5.421E-03 0.000E+00

     total cpu time spent up to now is        2.5 secs

     total energy              =   -1228.37540078 Ry
     estimated scf accuracy    <       0.04514238 Ry

     iteration #  4     ecut=    60.00 Ry     beta= 0.50
     Davidson diagonalization with overlap
     ethr =  1.25E-04,  avg # of iterations =  3.5

     negative rho (up, down):  9.184E-03 0.000E+00

     total cpu time spent up to now is        2.9 secs

     total energy              =   -1228.37978919 Ry
     estimated scf accuracy    <       0.02939595 Ry

     iteration #  5     ecut=    60.00 Ry     beta= 0.50
     Davidson diagonalization with overlap
     ethr =  8.17E-05,  avg # of iterations =  2.8

     negative rho (up, down):  1.228E-02 0.000E+00

     total cpu time spent up to now is        3.3 secs

     total energy              =   -1228.38421360 Ry
     estimated scf accuracy    <       0.01448394 Ry

     iteration #  6     ecut=    60.00 Ry     beta= 0.50
     Davidson diagonalization with overlap
     ethr =  4.02E-05,  avg # of iterations =  3.0

     negative rho (up, down):  5.009E-03 0.000E+00

     total cpu time spent up to now is        3.6 secs

     total energy              =   -1228.37535389 Ry
     estimated scf accuracy    <       0.01464706 Ry

     iteration #  7     ecut=    60.00 Ry     beta= 0.50
     Davidson diagonalization with overlap
     ethr =  4.02E-05,  avg # of iterations =  5.5

     negative rho (up, down):  3.098E-03 0.000E+00

     total cpu time spent up to now is        4.0 secs

     total energy              =   -1228.37280463 Ry
     estimated scf accuracy    <       0.07295692 Ry

     iteration #  8     ecut=    60.00 Ry     beta= 0.50
     Davidson diagonalization with overlap
     ethr =  4.02E-05,  avg # of iterations =  4.8

     negative rho (up, down):  4.019E-03 0.000E+00

     total cpu time spent up to now is        4.4 secs

     total energy              =   -1228.37825133 Ry
     estimated scf accuracy    <       0.00705785 Ry

     iteration #  9     ecut=    60.00 Ry     beta= 0.50
     Davidson diagonalization with overlap
     ethr =  1.96E-05,  avg # of iterations =  1.8

     negative rho (up, down):  1.968E-03 0.000E+00

     total cpu time spent up to now is        4.7 secs

     total energy              =   -1228.37642827 Ry
     estimated scf accuracy    <       0.00613827 Ry

     iteration # 10     ecut=    60.00 Ry     beta= 0.50
     Davidson diagonalization with overlap
     ethr =  1.71E-05,  avg # of iterations =  4.0

     negative rho (up, down):  9.258E-04 0.000E+00

     total cpu time spent up to now is        5.1 secs

     total energy              =   -1228.37742240 Ry
     estimated scf accuracy    <       0.00170155 Ry

     iteration # 11     ecut=    60.00 Ry     beta= 0.50
     Davidson diagonalization with overlap
     ethr =  4.73E-06,  avg # of iterations =  2.0

     negative rho (up, down):  9.323E-04 0.000E+00

     total cpu time spent up to now is        5.4 secs

     total energy              =   -1228.37727930 Ry
     estimated scf accuracy    <       0.00088486 Ry

     iteration # 12     ecut=    60.00 Ry     beta= 0.50
     Davidson diagonalization with overlap
     ethr =  2.46E-06,  avg # of iterations =  6.0

     negative rho (up, down):  7.763E-04 0.000E+00

     total cpu time spent up to now is        5.8 secs

     total energy              =   -1228.37728034 Ry
     estimated scf accuracy    <       0.00307262 Ry

     iteration # 13     ecut=    60.00 Ry     beta= 0.50
     Davidson diagonalization with overlap
     ethr =  2.46E-06,  avg # of iterations =  5.0

     negative rho (up, down):  7.568E-04 0.000E+00

     total cpu time spent up to now is        6.2 secs

     total energy              =   -1228.37759837 Ry
     estimated scf accuracy    <       0.00010638 Ry

     iteration # 14     ecut=    60.00 Ry     beta= 0.50
     Davidson diagonalization with overlap
     ethr =  2.96E-07,  avg # of iterations =  5.2

     negative rho (up, down):  7.798E-04 0.000E+00

     total cpu time spent up to now is        6.6 secs

     total energy              =   -1228.37761006 Ry
     estimated scf accuracy    <       0.00009642 Ry

     iteration # 15     ecut=    60.00 Ry     beta= 0.50
     Davidson diagonalization with overlap
     ethr =  2.68E-07,  avg # of iterations =  3.5

     negative rho (up, down):  7.561E-04 0.000E+00

     total cpu time spent up to now is        6.9 secs

     total energy              =   -1228.37760700 Ry
     estimated scf accuracy    <       0.00003908 Ry

     iteration # 16     ecut=    60.00 Ry     beta= 0.50
     Davidson diagonalization with overlap
     ethr =  1.09E-07,  avg # of iterations =  4.8

     negative rho (up, down):  7.522E-04 0.000E+00

     total cpu time spent up to now is        7.3 secs

     total energy              =   -1228.37761387 Ry
     estimated scf accuracy    <       0.00001535 Ry

     iteration # 17     ecut=    60.00 Ry     beta= 0.50
     Davidson diagonalization with overlap
     ethr =  4.26E-08,  avg # of iterations =  2.0

     negative rho (up, down):  7.512E-04 0.000E+00

     total cpu time spent up to now is        7.6 secs

     total energy              =   -1228.37761401 Ry
     estimated scf accuracy    <       0.00000857 Ry

     iteration # 18     ecut=    60.00 Ry     beta= 0.50
     Davidson diagonalization with overlap
     ethr =  2.38E-08,  avg # of iterations =  2.2

     negative rho (up, down):  7.487E-04 0.000E+00

     total cpu time spent up to now is        8.0 secs

     total energy              =   -1228.37761382 Ry
     estimated scf accuracy    <       0.00000481 Ry

     iteration # 19     ecut=    60.00 Ry     beta= 0.50
     Davidson diagonalization with overlap
     ethr =  1.34E-08,  avg # of iterations =  4.5

     negative rho (up, down):  7.434E-04 0.000E+00

     total cpu time spent up to now is        8.3 secs

     total energy              =   -1228.37761400 Ry
     estimated scf accuracy    <       0.00000136 Ry

     iteration # 20     ecut=    60.00 Ry     beta= 0.50
     Davidson diagonalization with overlap
     ethr =  3.78E-09,  avg # of iterations =  4.5

     negative rho (up, down):  7.450E-04 0.000E+00

     total cpu time spent up to now is        8.7 secs

     total energy              =   -1228.37761459 Ry
     estimated scf accuracy    <       0.00000113 Ry

     iteration # 21     ecut=    60.00 Ry     beta= 0.50
     Davidson diagonalization with overlap
     ethr =  3.15E-09,  avg # of iterations =  5.0

     negative rho (up, down):  7.492E-04 0.000E+00

     total cpu time spent up to now is        9.1 secs

     total energy              =   -1228.37761433 Ry
     estimated scf accuracy    <       0.00000491 Ry

     iteration # 22     ecut=    60.00 Ry     beta= 0.50
     Davidson diagonalization with overlap
     ethr =  3.15E-09,  avg # of iterations =  2.2

     negative rho (up, down):  7.542E-04 0.000E+00

     total cpu time spent up to now is        9.5 secs

     total energy              =   -1228.37761333 Ry
     estimated scf accuracy    <       0.00000351 Ry

     iteration # 23     ecut=    60.00 Ry     beta= 0.50
     Davidson diagonalization with overlap
     ethr =  3.15E-09,  avg # of iterations =  7.0

     negative rho (up, down):  7.528E-04 0.000E+00

     total cpu time spent up to now is        9.9 secs

     total energy              =   -1228.37761412 Ry
     estimated scf accuracy    <       0.00000265 Ry

     iteration # 24     ecut=    60.00 Ry     beta= 0.50
     Davidson diagonalization with overlap
     ethr =  3.15E-09,  avg # of iterations =  3.2

     negative rho (up, down):  7.538E-04 0.000E+00

     total cpu time spent up to now is       10.2 secs

     total energy              =   -1228.37761410 Ry
     estimated scf accuracy    <       0.00000080 Ry

     iteration # 25     ecut=    60.00 Ry     beta= 0.50
     Davidson diagonalization with overlap
     ethr =  2.23E-09,  avg # of iterations =  3.5

     negative rho (up, down):  7.539E-04 0.000E+00

     total cpu time spent up to now is       10.6 secs

     total energy              =   -1228.37761418 Ry
     estimated scf accuracy    <       0.00000006 Ry

     iteration # 26     ecut=    60.00 Ry     beta= 0.50
     Davidson diagonalization with overlap
     ethr =  1.78E-10,  avg # of iterations =  4.5

     negative rho (up, down):  7.533E-04 0.000E+00

     total cpu time spent up to now is       10.9 secs

     total energy              =   -1228.37761419 Ry
     estimated scf accuracy    <       0.00000002 Ry

     iteration # 27     ecut=    60.00 Ry     beta= 0.50
     Davidson diagonalization with overlap
     ethr =  5.28E-11,  avg # of iterations =  4.5

     negative rho (up, down):  7.544E-04 0.000E+00

     total cpu time spent up to now is       11.3 secs

     End of self-consistent calculation

          k = 0.0000 0.0000 0.0000 ( 11811 PWs)   bands (ev):

   -75.1286 -48.3922 -48.3919 -48.3919 -48.3893 -48.3893 -39.3227 -39.0365
   -39.0365 -14.9641 -13.7749  -6.8041  -3.6952  -2.1421  -1.7690  -1.7690
    -0.7248  -0.7248

          k = 0.0000 0.2887 0.0000 ( 11777 PWs)   bands (ev):

   -75.1217 -48.3928 -48.3909 -48.3908 -48.3893 -48.3877 -39.3020 -39.1708
   -39.0691 -14.1467 -13.1434  -5.6343  -4.1189  -3.8405  -2.7309  -1.9813
    -1.7502  -1.0622

          k = 0.0000-0.5774 0.0000 ( 11704 PWs)   bands (ev):

   -75.1148 -48.3937 -48.3915 -48.3908 -48.3871 -48.3848 -39.3022 -39.2812
   -39.1015 -13.0148 -12.2716  -6.5064  -5.4561  -4.3776  -3.4675  -2.4541
    -1.9076  -0.9322

          k = 0.2500 0.4330 0.0000 ( 11731 PWs)   bands (ev):

   -75.1148 -48.3924 -48.3913 -48.3895 -48.3891 -48.3857 -39.2813 -39.2528
   -39.1522 -13.0550 -12.2956  -5.5222  -4.7613  -4.2930  -3.9617  -3.3102
    -2.8972  -1.1957

     highest occupied level (ev):    -0.7248

!    total energy              =   -1228.37761420 Ry
     total all-electron energy =    -37944.468045 Ry
     estimated scf accuracy    <          7.3E-10 Ry

     The total energy is the sum of the following terms:
     one-electron contribution =   -2749.63678827 Ry
     hartree contribution      =    1372.45312621 Ry
     xc contribution           =     -73.23883389 Ry
     ewald contribution        =    1014.62638954 Ry
     one-center paw contrib.   =    -792.58150780 Ry

     convergence has been achieved in  27 iterations

     Writing all to output data dir ./work/WSSe.save/

     init_run     :      0.81s CPU      0.84s WALL (       1 calls)
     electrons    :      9.83s CPU     10.16s WALL (       1 calls)

     Called by init_run:
     wfcinit      :      0.06s CPU      0.07s WALL (       1 calls)
     potinit      :      0.16s CPU      0.17s WALL (       1 calls)
     hinit0       :      0.49s CPU      0.49s WALL (       1 calls)

     Called by electrons:
     c_bands      :      3.62s CPU      3.83s WALL (      28 calls)
     sum_band     :      2.66s CPU      2.72s WALL (      28 calls)
     v_of_rho     :      0.17s CPU      0.17s WALL (      28 calls)
     newd         :      2.01s CPU      2.03s WALL (      28 calls)
     PAW_pot      :      1.37s CPU      1.42s WALL (      28 calls)
     mix_rho      :      0.09s CPU      0.09s WALL (      28 calls)

     Called by c_bands:
     init_us_2    :      0.07s CPU      0.07s WALL (     228 calls)
     init_us_2:cp :      0.07s CPU      0.07s WALL (     228 calls)
     cegterg      :      3.41s CPU      3.62s WALL (     112 calls)

     Called by *egterg:
     cdiaghg      :      0.15s CPU      0.15s WALL (     565 calls)
     h_psi        :      2.22s CPU      2.40s WALL (     573 calls)
     s_psi        :      0.28s CPU      0.29s WALL (     573 calls)
     g_psi        :      0.01s CPU      0.01s WALL (     457 calls)

     Called by h_psi:
     h_psi:calbec :      0.31s CPU      0.34s WALL (     573 calls)
     vloc_psi     :      1.62s CPU      1.76s WALL (     573 calls)
     add_vuspsi   :      0.28s CPU      0.29s WALL (     573 calls)

     General routines
     calbec       :      0.41s CPU      0.45s WALL (     685 calls)
     fft          :      0.34s CPU      0.34s WALL (     309 calls)
     ffts         :      0.01s CPU      0.01s WALL (      28 calls)
     fftw         :      1.76s CPU      1.92s WALL (   12714 calls)

     Parallel routines

     PWSCF        :     10.95s CPU     11.33s WALL


   This run was terminated on:  11: 6:47  30Jan2023            

=------------------------------------------------------------------------------=
   JOB DONE.
=------------------------------------------------------------------------------=
