
     Program PWSCF v.7.1 starts on 30Jan2023 at 11: 8:20 

     This program is part of the open-source Quantum ESPRESSO suite
     for quantum simulation of materials; please cite
         "P. Giannozzi et al., J. Phys.:Condens. Matter 21 395502 (2009);
         "P. Giannozzi et al., J. Phys.:Condens. Matter 29 465901 (2017);
         "P. Giannozzi et al., J. Chem. Phys. 152 154105 (2020);
          URL http://www.quantum-espresso.org", 
     in publications or presentations arising from this work. More details at
     http://www.quantum-espresso.org/quote

     Parallel version (MPI), running on    12 processors

     MPI processes distributed on     1 nodes
     122227 MiB available memory on the printing compute node when the environment starts

     Waiting for input...
     Reading input from standard input

     Current dimensions of program PWSCF are:
     Max number of different atomic species (ntypx) = 10
     Max number of k-points (npk) =  40000
     Max angular momentum in pseudopotentials (lmaxx) =  4
     file W.pbe-spn-kjpaw_psl.1.0.0.UPF: wavefunction(s)  6S 5P 5D renormalized
     file S.pbe-n-kjpaw_psl.1.0.0.UPF: wavefunction(s)  3S 3P renormalized
     file Se.pbe-dn-kjpaw_psl.1.0.0.UPF: wavefunction(s)  4S 4P 3D renormalized
     Message from routine setup:
     using ibrav=0 with symmetry is DISCOURAGED, use correct ibrav instead

     R & G space division:  proc/nbgrp/npool/nimage =      12
     Subspace diagonalization in iterative solution of the eigenvalue problem:
     a serial algorithm will be used


     Parallelization info
     --------------------
     sticks:   dense  smooth     PW     G-vecs:    dense   smooth      PW
     Min          49      49     14                 7805     7805    1240
     Max          50      50     18                 7840     7840    1246
     Sum         595     595    187                93827    93827   14917

     Using Slab Decomposition



     bravais-lattice index     =            0
     lattice parameter (alat)  =       6.0471  a.u.
     unit-cell volume          =    1496.1227 (a.u.)^3
     number of atoms/cell      =            3
     number of atomic types    =            3
     number of electrons       =        36.00
     number of Kohn-Sham states=           18
     kinetic-energy cutoff     =      60.0000  Ry
     charge density cutoff     =     240.0000  Ry
     scf convergence threshold =      1.0E-08
     mixing beta               =       0.5000
     number of iterations used =            8  plain     mixing
     Exchange-correlation= SLA  PW   PBX  PBC
                           (   1   4   3   4   0   0   0)

     celldm(1)=   6.047124  celldm(2)=   0.000000  celldm(3)=   0.000000
     celldm(4)=   0.000000  celldm(5)=   0.000000  celldm(6)=   0.000000

     crystal axes: (cart. coord. in units of alat)
               a(1) = (   1.000000   0.000000   0.000000 )  
               a(2) = (  -0.500000   0.866025   0.000000 )  
               a(3) = (   0.000000   0.000000   7.812500 )  

     reciprocal axes: (cart. coord. in units 2 pi/alat)
               b(1) = (  1.000000  0.577350 -0.000000 )  
               b(2) = (  0.000000  1.154701  0.000000 )  
               b(3) = (  0.000000 -0.000000  0.128000 )  


     PseudoPot. # 1 for W  read from file:
     /home/mainadmin/research/danu/pseudo/W.pbe-spn-kjpaw_psl.1.0.0.UPF
     MD5 check sum: 03c3df5b60893f488392c7401945500a
     Pseudo is Projector augmented-wave + core cor, Zval = 14.0
     Generated using &quot;atomic&quot; code by A. Dal Corso  v.6.2.2
     Shape of augmentation charge: PSQ
     Using radial grid of 1273 points,  6 beta functions with: 
                l(1) =   0
                l(2) =   0
                l(3) =   1
                l(4) =   1
                l(5) =   2
                l(6) =   2
     Q(r) pseudized with 0 coefficients 


     PseudoPot. # 2 for S  read from file:
     /home/mainadmin/research/danu/pseudo/S.pbe-n-kjpaw_psl.1.0.0.UPF
     MD5 check sum: fb45dfebcf3e72a4e1bd4a866ec2e262
     Pseudo is Projector augmented-wave + core cor, Zval =  6.0
     Generated using &quot;atomic&quot; code by A. Dal Corso  v.6.3
     Shape of augmentation charge: PSQ
     Using radial grid of 1151 points,  6 beta functions with: 
                l(1) =   0
                l(2) =   0
                l(3) =   1
                l(4) =   1
                l(5) =   2
                l(6) =   2
     Q(r) pseudized with 0 coefficients 


     PseudoPot. # 3 for Se read from file:
     /home/mainadmin/research/danu/pseudo/Se.pbe-dn-kjpaw_psl.1.0.0.UPF
     MD5 check sum: ac240dd2bae32a30e0bf3a38df9c8785
     Pseudo is Projector augmented-wave + core cor, Zval = 16.0
     Generated using &quot;atomic&quot; code by A. Dal Corso  v.6.3
     Shape of augmentation charge: PSQ
     Using radial grid of 1211 points,  6 beta functions with: 
                l(1) =   0
                l(2) =   0
                l(3) =   1
                l(4) =   1
                l(5) =   2
                l(6) =   2
     Q(r) pseudized with 0 coefficients 


     atomic species   valence    mass     pseudopotential
        W             14.00   183.84000     W ( 1.00)
        S              6.00    32.06500     S ( 1.00)
        Se            16.00    78.96000     Se( 1.00)

      6 Sym. Ops. (no inversion) found



   Cartesian axes

     site n.     atom                  positions (alat units)
         1           Se  tau(   1) = (   0.5000000   0.2886751   4.5312500  )
         2           W   tau(   2) = (  -0.0000000   0.5773503   3.9062500  )
         3           S   tau(   3) = (   0.5000000   0.2886751  -4.5312500  )

     number of k points=    16
                       cart. coord. in units 2pi/alat
        k(    1) = (   0.0000000   0.0000000   0.0000000), wk =   0.0165289
        k(    2) = (   0.0000000   0.1049728   0.0000000), wk =   0.0991736
        k(    3) = (   0.0000000   0.2099456   0.0000000), wk =   0.0991736
        k(    4) = (   0.0000000   0.3149183   0.0000000), wk =   0.0991736
        k(    5) = (   0.0000000   0.4198911   0.0000000), wk =   0.0991736
        k(    6) = (   0.0000000   0.5248639   0.0000000), wk =   0.0991736
        k(    7) = (   0.0909091   0.1574592   0.0000000), wk =   0.0991736
        k(    8) = (   0.0909091   0.2624319   0.0000000), wk =   0.1983471
        k(    9) = (   0.0909091   0.3674047   0.0000000), wk =   0.1983471
        k(   10) = (   0.0909091   0.4723775   0.0000000), wk =   0.1983471
        k(   11) = (   0.0909091   0.5773503   0.0000000), wk =   0.0991736
        k(   12) = (   0.1818182   0.3149183   0.0000000), wk =   0.0991736
        k(   13) = (   0.1818182   0.4198911   0.0000000), wk =   0.1983471
        k(   14) = (   0.1818182   0.5248639   0.0000000), wk =   0.1983471
        k(   15) = (   0.2727273   0.4723775   0.0000000), wk =   0.0991736
        k(   16) = (   0.2727273   0.5773503   0.0000000), wk =   0.0991736

     Dense  grid:    93827 G-vectors     FFT dimensions: (  30,  30, 240)

     Estimated max dynamical RAM per process >      36.45 MB

     Estimated total dynamical RAM >     437.39 MB

     Check: negative core charge=   -0.000001

     Initial potential from superposition of free atoms

     starting charge      35.9993, renormalised to      36.0000

     negative rho (up, down):  5.774E-04 0.000E+00
     Starting wfcs are   26 randomized atomic wfcs
     Checking if some PAW data can be deallocated... 

     total cpu time spent up to now is        1.2 secs

     Self-consistent Calculation

     iteration #  1     ecut=    60.00 Ry     beta= 0.50
     Davidson diagonalization with overlap
     ethr =  1.00E-02,  avg # of iterations =  2.0

     Threshold (ethr) on eigenvalues was too large:
     Diagonalizing with lowered threshold

     Davidson diagonalization with overlap
     ethr =  4.62E-04,  avg # of iterations =  2.0

     negative rho (up, down):  1.139E-03 0.000E+00

     total cpu time spent up to now is        2.6 secs

     total energy              =   -1228.30571658 Ry
     estimated scf accuracy    <       0.16871408 Ry

     iteration #  2     ecut=    60.00 Ry     beta= 0.50
     Davidson diagonalization with overlap
     ethr =  4.69E-04,  avg # of iterations =  8.1

     negative rho (up, down):  1.433E-03 0.000E+00

     total cpu time spent up to now is        3.7 secs

     total energy              =   -1228.08174269 Ry
     estimated scf accuracy    <       4.05474157 Ry

     iteration #  3     ecut=    60.00 Ry     beta= 0.50
     Davidson diagonalization with overlap
     ethr =  4.69E-04,  avg # of iterations =  7.8

     negative rho (up, down):  4.318E-03 0.000E+00

     total cpu time spent up to now is        4.8 secs

     total energy              =   -1228.37196190 Ry
     estimated scf accuracy    <       0.04752713 Ry

     iteration #  4     ecut=    60.00 Ry     beta= 0.50
     Davidson diagonalization with overlap
     ethr =  1.32E-04,  avg # of iterations =  4.9

     negative rho (up, down):  8.000E-03 0.000E+00

     total cpu time spent up to now is        5.7 secs

     total energy              =   -1228.37492960 Ry
     estimated scf accuracy    <       0.10263560 Ry

     iteration #  5     ecut=    60.00 Ry     beta= 0.50
     Davidson diagonalization with overlap
     ethr =  1.32E-04,  avg # of iterations =  3.9

     negative rho (up, down):  1.548E-02 0.000E+00

     total cpu time spent up to now is        6.5 secs

     total energy              =   -1228.38585317 Ry
     estimated scf accuracy    <       0.01608517 Ry

     iteration #  6     ecut=    60.00 Ry     beta= 0.50
     Davidson diagonalization with overlap
     ethr =  4.47E-05,  avg # of iterations =  3.4

     negative rho (up, down):  4.365E-03 0.000E+00

     total cpu time spent up to now is        7.3 secs

     total energy              =   -1228.36908182 Ry
     estimated scf accuracy    <       0.01771391 Ry

     iteration #  7     ecut=    60.00 Ry     beta= 0.50
     Davidson diagonalization with overlap
     ethr =  4.47E-05,  avg # of iterations =  4.8

     negative rho (up, down):  6.876E-03 0.000E+00

     total cpu time spent up to now is        8.3 secs

     total energy              =   -1228.38231058 Ry
     estimated scf accuracy    <       0.02195896 Ry

     iteration #  8     ecut=    60.00 Ry     beta= 0.50
     Davidson diagonalization with overlap
     ethr =  4.47E-05,  avg # of iterations =  1.9

     negative rho (up, down):  1.742E-03 0.000E+00

     total cpu time spent up to now is        9.0 secs

     total energy              =   -1228.37815947 Ry
     estimated scf accuracy    <       0.02026252 Ry

     iteration #  9     ecut=    60.00 Ry     beta= 0.50
     Davidson diagonalization with overlap
     ethr =  4.47E-05,  avg # of iterations =  2.0

     negative rho (up, down):  8.148E-04 0.000E+00

     total cpu time spent up to now is        9.8 secs

     total energy              =   -1228.37785443 Ry
     estimated scf accuracy    <       0.01155199 Ry

     iteration # 10     ecut=    60.00 Ry     beta= 0.50
     Davidson diagonalization with overlap
     ethr =  3.21E-05,  avg # of iterations =  3.4

     negative rho (up, down):  7.469E-04 0.000E+00

     total cpu time spent up to now is       10.6 secs

     total energy              =   -1228.37899131 Ry
     estimated scf accuracy    <       0.00086720 Ry

     iteration # 11     ecut=    60.00 Ry     beta= 0.50
     Davidson diagonalization with overlap
     ethr =  2.41E-06,  avg # of iterations =  5.4

     negative rho (up, down):  7.747E-04 0.000E+00

     total cpu time spent up to now is       11.5 secs

     total energy              =   -1228.37919507 Ry
     estimated scf accuracy    <       0.00072649 Ry

     iteration # 12     ecut=    60.00 Ry     beta= 0.50
     Davidson diagonalization with overlap
     ethr =  2.02E-06,  avg # of iterations =  2.8

     negative rho (up, down):  7.467E-04 0.000E+00

     total cpu time spent up to now is       12.3 secs

     total energy              =   -1228.37925052 Ry
     estimated scf accuracy    <       0.00003711 Ry

     iteration # 13     ecut=    60.00 Ry     beta= 0.50
     Davidson diagonalization with overlap
     ethr =  1.03E-07,  avg # of iterations =  6.8

     negative rho (up, down):  7.422E-04 0.000E+00

     total cpu time spent up to now is       13.4 secs

     total energy              =   -1228.37926909 Ry
     estimated scf accuracy    <       0.00011341 Ry

     iteration # 14     ecut=    60.00 Ry     beta= 0.50
     Davidson diagonalization with overlap
     ethr =  1.03E-07,  avg # of iterations =  4.3

     negative rho (up, down):  7.436E-04 0.000E+00

     total cpu time spent up to now is       14.2 secs

     total energy              =   -1228.37927586 Ry
     estimated scf accuracy    <       0.00000459 Ry

     iteration # 15     ecut=    60.00 Ry     beta= 0.50
     Davidson diagonalization with overlap
     ethr =  1.28E-08,  avg # of iterations =  7.5

     negative rho (up, down):  7.442E-04 0.000E+00

     total cpu time spent up to now is       15.3 secs

     total energy              =   -1228.37927835 Ry
     estimated scf accuracy    <       0.00002546 Ry

     iteration # 16     ecut=    60.00 Ry     beta= 0.50
     Davidson diagonalization with overlap
     ethr =  1.28E-08,  avg # of iterations =  2.9

     negative rho (up, down):  7.459E-04 0.000E+00

     total cpu time spent up to now is       16.1 secs

     total energy              =   -1228.37927607 Ry
     estimated scf accuracy    <       0.00001203 Ry

     iteration # 17     ecut=    60.00 Ry     beta= 0.50
     Davidson diagonalization with overlap
     ethr =  1.28E-08,  avg # of iterations =  5.3

     negative rho (up, down):  7.457E-04 0.000E+00

     total cpu time spent up to now is       17.0 secs

     total energy              =   -1228.37927832 Ry
     estimated scf accuracy    <       0.00000170 Ry

     iteration # 18     ecut=    60.00 Ry     beta= 0.50
     Davidson diagonalization with overlap
     ethr =  4.72E-09,  avg # of iterations =  1.1

     negative rho (up, down):  7.445E-04 0.000E+00

     total cpu time spent up to now is       17.7 secs

     total energy              =   -1228.37927834 Ry
     estimated scf accuracy    <       0.00000171 Ry

     iteration # 19     ecut=    60.00 Ry     beta= 0.50
     Davidson diagonalization with overlap
     ethr =  4.72E-09,  avg # of iterations =  1.0

     negative rho (up, down):  7.454E-04 0.000E+00

     total cpu time spent up to now is       18.3 secs

     total energy              =   -1228.37927818 Ry
     estimated scf accuracy    <       0.00000180 Ry

     iteration # 20     ecut=    60.00 Ry     beta= 0.50
     Davidson diagonalization with overlap
     ethr =  4.72E-09,  avg # of iterations =  1.1

     negative rho (up, down):  7.470E-04 0.000E+00

     total cpu time spent up to now is       19.0 secs

     total energy              =   -1228.37927785 Ry
     estimated scf accuracy    <       0.00000103 Ry

     iteration # 21     ecut=    60.00 Ry     beta= 0.50
     Davidson diagonalization with overlap
     ethr =  2.87E-09,  avg # of iterations =  5.1

     negative rho (up, down):  7.463E-04 0.000E+00

     total cpu time spent up to now is       19.9 secs

     total energy              =   -1228.37927803 Ry
     estimated scf accuracy    <       0.00000105 Ry

     iteration # 22     ecut=    60.00 Ry     beta= 0.50
     Davidson diagonalization with overlap
     ethr =  2.87E-09,  avg # of iterations =  3.0

     negative rho (up, down):  7.464E-04 0.000E+00

     total cpu time spent up to now is       20.7 secs

     total energy              =   -1228.37927814 Ry
     estimated scf accuracy    <       0.00000005 Ry

     iteration # 23     ecut=    60.00 Ry     beta= 0.50
     Davidson diagonalization with overlap
     ethr =  1.36E-10,  avg # of iterations =  6.0

     negative rho (up, down):  7.464E-04 0.000E+00

     total cpu time spent up to now is       21.7 secs

     total energy              =   -1228.37927817 Ry
     estimated scf accuracy    <       0.00000007 Ry

     iteration # 24     ecut=    60.00 Ry     beta= 0.50
     Davidson diagonalization with overlap
     ethr =  1.36E-10,  avg # of iterations =  2.9

     negative rho (up, down):  7.463E-04 0.000E+00

     total cpu time spent up to now is       22.5 secs

     total energy              =   -1228.37927818 Ry
     estimated scf accuracy    <       0.00000014 Ry

     iteration # 25     ecut=    60.00 Ry     beta= 0.50
     Davidson diagonalization with overlap
     ethr =  1.36E-10,  avg # of iterations =  1.0

     negative rho (up, down):  7.464E-04 0.000E+00

     total cpu time spent up to now is       23.2 secs

     total energy              =   -1228.37927818 Ry
     estimated scf accuracy    <       0.00000015 Ry

     iteration # 26     ecut=    60.00 Ry     beta= 0.50
     Davidson diagonalization with overlap
     ethr =  1.36E-10,  avg # of iterations =  1.0

     negative rho (up, down):  7.464E-04 0.000E+00

     total cpu time spent up to now is       23.8 secs

     total energy              =   -1228.37927815 Ry
     estimated scf accuracy    <       0.00000016 Ry

     iteration # 27     ecut=    60.00 Ry     beta= 0.50
     Davidson diagonalization with overlap
     ethr =  1.36E-10,  avg # of iterations =  3.4

     negative rho (up, down):  7.466E-04 0.000E+00

     total cpu time spent up to now is       24.7 secs

     total energy              =   -1228.37927816 Ry
     estimated scf accuracy    <       0.00000003 Ry

     iteration # 28     ecut=    60.00 Ry     beta= 0.50
     Davidson diagonalization with overlap
     ethr =  9.20E-11,  avg # of iterations =  1.0

     negative rho (up, down):  7.467E-04 0.000E+00

     total cpu time spent up to now is       25.3 secs

     total energy              =   -1228.37927816 Ry
     estimated scf accuracy    <       0.00000004 Ry

     iteration # 29     ecut=    60.00 Ry     beta= 0.50
     Davidson diagonalization with overlap
     ethr =  9.20E-11,  avg # of iterations =  1.0

     negative rho (up, down):  7.468E-04 0.000E+00

     total cpu time spent up to now is       26.0 secs

     total energy              =   -1228.37927816 Ry
     estimated scf accuracy    <       0.00000004 Ry

     iteration # 30     ecut=    60.00 Ry     beta= 0.50
     Davidson diagonalization with overlap
     ethr =  9.20E-11,  avg # of iterations =  1.0

     negative rho (up, down):  7.469E-04 0.000E+00

     total cpu time spent up to now is       26.7 secs

     total energy              =   -1228.37927816 Ry
     estimated scf accuracy    <       0.00000005 Ry

     iteration # 31     ecut=    60.00 Ry     beta= 0.50
     Davidson diagonalization with overlap
     ethr =  9.20E-11,  avg # of iterations =  1.0

     negative rho (up, down):  7.469E-04 0.000E+00

     total cpu time spent up to now is       27.4 secs

     total energy              =   -1228.37927815 Ry
     estimated scf accuracy    <       0.00000004 Ry

     iteration # 32     ecut=    60.00 Ry     beta= 0.50
     Davidson diagonalization with overlap
     ethr =  9.20E-11,  avg # of iterations =  4.0

     negative rho (up, down):  7.475E-04 0.000E+00

     total cpu time spent up to now is       28.2 secs

     End of self-consistent calculation

          k = 0.0000 0.0000 0.0000 ( 11811 PWs)   bands (ev):

   -75.2380 -48.4207 -48.4207 -48.4173 -48.4159 -48.4159 -39.4087 -39.1502
   -39.1502 -14.9932 -13.8030  -6.8567  -3.7195  -2.1968  -1.8500  -1.8500
    -0.7803  -0.7803

          k = 0.0000 0.1050 0.0000 ( 11793 PWs)   bands (ev):

   -75.2369 -48.4207 -48.4203 -48.4171 -48.4160 -48.4159 -39.4054 -39.1716
   -39.1554 -14.8759 -13.7123  -6.6734  -3.7473  -2.2156  -2.1223  -1.7188
    -1.0875  -0.9837

          k = 0.0000 0.2099 0.0000 ( 11815 PWs)   bands (ev):

   -75.2340 -48.4209 -48.4192 -48.4166 -48.4162 -48.4159 -39.3966 -39.2289
   -39.1692 -14.5401 -13.4529  -6.1695  -3.8560  -3.1287  -2.0447  -1.9479
    -1.4401  -1.3821

          k = 0.0000 0.3149 0.0000 ( 11763 PWs)   bands (ev):

   -75.2302 -48.4211 -48.4179 -48.4171 -48.4156 -48.4152 -39.3851 -39.3030
   -39.1873 -14.0396 -13.0675  -5.5372  -4.3953  -4.0446  -2.9627  -2.0938
    -1.9138  -1.0526

          k = 0.0000 0.4199 0.0000 ( 11765 PWs)   bands (ev):

   -75.2266 -48.4215 -48.4177 -48.4173 -48.4147 -48.4140 -39.3747 -39.3701
   -39.2039 -13.4896 -12.6455  -5.7371  -4.9962  -4.5102  -3.3887  -2.2815
    -2.1779  -0.9388

          k = 0.0000 0.5249 0.0000 ( 11707 PWs)   bands (ev):

   -75.2245 -48.4217 -48.4180 -48.4172 -48.4139 -48.4132 -39.4101 -39.3681
   -39.2138 -13.0998 -12.3444  -6.4397  -5.4213  -4.4445  -3.4925  -2.4782
    -2.0115  -0.9558

          k = 0.0909 0.1575 0.0000 ( 11813 PWs)   bands (ev):

   -75.2349 -48.4208 -48.4196 -48.4166 -48.4163 -48.4159 -39.3994 -39.2097
   -39.1662 -14.6492 -13.5371  -6.3269  -3.8052  -2.8333  -2.0271  -1.7470
    -1.5096  -1.2642

          k = 0.0909 0.2624 0.0000 ( 11777 PWs)   bands (ev):

   -75.2315 -48.4208 -48.4186 -48.4168 -48.4161 -48.4153 -39.3892 -39.2721
   -39.1854 -14.2292 -13.2130  -5.7256  -3.9880  -3.7773  -2.7702  -2.0549
    -1.7125  -1.2442

          k = 0.0909 0.3674 0.0000 ( 11775 PWs)   bands (ev):

   -75.2279 -48.4210 -48.4177 -48.4174 -48.4156 -48.4142 -39.3782 -39.3392
   -39.2064 -13.6961 -12.8028  -5.2917  -4.8121  -4.3134  -3.4349  -2.3244
    -2.1701  -1.1281

          k = 0.0909 0.4724 0.0000 ( 11724 PWs)   bands (ev):

   -75.2250 -48.4212 -48.4178 -48.4174 -48.4146 -48.4134 -39.3899 -39.3696
   -39.2224 -13.2082 -12.4267  -6.0530  -5.1537  -4.4335  -3.5247  -2.6308
    -2.2955  -1.1720

          k = 0.0909 0.5774 0.0000 ( 11658 PWs)   bands (ev):

   -75.2240 -48.4212 -48.4179 -48.4173 -48.4140 -48.4132 -39.4086 -39.3665
   -39.2284 -13.0004 -12.2644  -6.4303  -5.4206  -4.3665  -3.5012  -2.7917
    -2.2307  -1.1758

          k = 0.1818 0.3149 0.0000 ( 11755 PWs)   bands (ev):

   -75.2283 -48.4204 -48.4181 -48.4171 -48.4161 -48.4142 -39.3795 -39.3215
   -39.2135 -13.7712 -12.8595  -5.1118  -4.6540  -4.0195  -3.7047  -2.4299
    -2.1328  -1.2457

          k = 0.1818 0.4199 0.0000 ( 11721 PWs)   bands (ev):

   -75.2253 -48.4202 -48.4178 -48.4173 -48.4157 -48.4134 -39.3707 -39.3629
   -39.2428 -13.2790 -12.4783  -5.4844  -4.7199  -4.4553  -3.8585  -2.9402
    -2.6386  -1.3141

          k = 0.1818 0.5249 0.0000 ( 11676 PWs)   bands (ev):

   -75.2236 -48.4202 -48.4177 -48.4175 -48.4148 -48.4134 -39.3864 -39.3652
   -39.2612 -12.9397 -12.2123  -6.0341  -5.1734  -4.2525  -3.6570  -3.2892
    -3.0077  -1.2144

          k = 0.2727 0.4724 0.0000 ( 11714 PWs)   bands (ev):

   -75.2234 -48.4194 -48.4180 -48.4170 -48.4157 -48.4134 -39.3670 -39.3646
   -39.2849 -12.9209 -12.1951  -5.6500  -4.9786  -4.2158  -4.0387  -3.6224
    -3.1890  -1.1548

          k = 0.2727 0.5774 0.0000 ( 11678 PWs)   bands (ev):

   -75.2227 -48.4191 -48.4182 -48.4167 -48.4154 -48.4137 -39.3626 -39.3603
   -39.3085 -12.7765 -12.0791  -5.6570  -5.1523  -4.2948  -3.9522  -3.8016
    -3.4781  -0.9772

     highest occupied level (ev):    -0.7803

!    total energy              =   -1228.37927815 Ry
     total all-electron energy =    -37944.469709 Ry
     estimated scf accuracy    <          2.5E-09 Ry

     The total energy is the sum of the following terms:
     one-electron contribution =   -2749.50478327 Ry
     hartree contribution      =    1372.31296695 Ry
     xc contribution           =     -73.23285524 Ry
     ewald contribution        =    1014.62638954 Ry
     one-center paw contrib.   =    -792.58099614 Ry

     convergence has been achieved in  32 iterations

     Writing all to output data dir ./work/WSSe.save/

     init_run     :      0.95s CPU      1.01s WALL (       1 calls)
     electrons    :     25.46s CPU     26.97s WALL (       1 calls)

     Called by init_run:
     wfcinit      :      0.25s CPU      0.28s WALL (       1 calls)
     potinit      :      0.16s CPU      0.17s WALL (       1 calls)
     hinit0       :      0.44s CPU      0.44s WALL (       1 calls)

     Called by electrons:
     c_bands      :     16.48s CPU     17.62s WALL (      33 calls)
     sum_band     :      4.75s CPU      5.02s WALL (      33 calls)
     v_of_rho     :      0.18s CPU      0.20s WALL (      33 calls)
     newd         :      2.34s CPU      2.37s WALL (      33 calls)
     PAW_pot      :      1.67s CPU      1.75s WALL (      33 calls)
     mix_rho      :      0.11s CPU      0.11s WALL (      33 calls)

     Called by c_bands:
     init_us_2    :      0.31s CPU      0.33s WALL (    1072 calls)
     init_us_2:cp :      0.31s CPU      0.33s WALL (    1072 calls)
     cegterg      :     15.60s CPU     16.72s WALL (     528 calls)

     Called by *egterg:
     cdiaghg      :      0.59s CPU      0.62s WALL (    2315 calls)
     h_psi        :     10.34s CPU     11.30s WALL (    2347 calls)
     s_psi        :      1.33s CPU      1.40s WALL (    2347 calls)
     g_psi        :      0.05s CPU      0.05s WALL (    1803 calls)

     Called by h_psi:
     h_psi:calbec :      1.36s CPU      1.53s WALL (    2347 calls)
     vloc_psi     :      7.65s CPU      8.33s WALL (    2347 calls)
     add_vuspsi   :      1.30s CPU      1.41s WALL (    2347 calls)

     General routines
     calbec       :      1.85s CPU      2.08s WALL (    2875 calls)
     fft          :      0.35s CPU      0.36s WALL (     364 calls)
     ffts         :      0.01s CPU      0.01s WALL (      33 calls)
     fftw         :      8.38s CPU      9.17s WALL (   58668 calls)

     Parallel routines

     PWSCF        :     26.68s CPU     28.29s WALL


   This run was terminated on:  11: 8:49  30Jan2023            

=------------------------------------------------------------------------------=
   JOB DONE.
=------------------------------------------------------------------------------=
