
     Program PWSCF v.7.1 starts on 30Jan2023 at 11:14: 9 

     This program is part of the open-source Quantum ESPRESSO suite
     for quantum simulation of materials; please cite
         "P. Giannozzi et al., J. Phys.:Condens. Matter 21 395502 (2009);
         "P. Giannozzi et al., J. Phys.:Condens. Matter 29 465901 (2017);
         "P. Giannozzi et al., J. Chem. Phys. 152 154105 (2020);
          URL http://www.quantum-espresso.org", 
     in publications or presentations arising from this work. More details at
     http://www.quantum-espresso.org/quote

     Parallel version (MPI), running on    12 processors

     MPI processes distributed on     1 nodes
     122136 MiB available memory on the printing compute node when the environment starts

     Waiting for input...
     Reading input from standard input

     Current dimensions of program PWSCF are:
     Max number of different atomic species (ntypx) = 10
     Max number of k-points (npk) =  40000
     Max angular momentum in pseudopotentials (lmaxx) =  4
     file W.pbe-spn-kjpaw_psl.1.0.0.UPF: wavefunction(s)  6S 5P 5D renormalized
     file S.pbe-n-kjpaw_psl.1.0.0.UPF: wavefunction(s)  3S 3P renormalized
     file Se.pbe-dn-kjpaw_psl.1.0.0.UPF: wavefunction(s)  4S 4P 3D renormalized
     Message from routine setup:
     using ibrav=0 with symmetry is DISCOURAGED, use correct ibrav instead

     R & G space division:  proc/nbgrp/npool/nimage =      12
     Subspace diagonalization in iterative solution of the eigenvalue problem:
     a serial algorithm will be used


     Parallelization info
     --------------------
     sticks:   dense  smooth     PW     G-vecs:    dense   smooth      PW
     Min          49      49     14                 7805     7805    1246
     Max          50      50     17                 7840     7840    1253
     Sum         595     595    187                93827    93827   14989

     Using Slab Decomposition



     bravais-lattice index     =            0
     lattice parameter (alat)  =       6.0471  a.u.
     unit-cell volume          =    1496.1227 (a.u.)^3
     number of atoms/cell      =            3
     number of atomic types    =            3
     number of electrons       =        36.00
     number of Kohn-Sham states=           18
     kinetic-energy cutoff     =      60.0000  Ry
     charge density cutoff     =     240.0000  Ry
     scf convergence threshold =      1.0E-08
     mixing beta               =       0.5000
     number of iterations used =            8  plain     mixing
     Exchange-correlation= SLA  PW   PBX  PBC
                           (   1   4   3   4   0   0   0)

     celldm(1)=   6.047124  celldm(2)=   0.000000  celldm(3)=   0.000000
     celldm(4)=   0.000000  celldm(5)=   0.000000  celldm(6)=   0.000000

     crystal axes: (cart. coord. in units of alat)
               a(1) = (   1.000000   0.000000   0.000000 )  
               a(2) = (  -0.500000   0.866025   0.000000 )  
               a(3) = (   0.000000   0.000000   7.812500 )  

     reciprocal axes: (cart. coord. in units 2 pi/alat)
               b(1) = (  1.000000  0.577350 -0.000000 )  
               b(2) = (  0.000000  1.154701  0.000000 )  
               b(3) = (  0.000000 -0.000000  0.128000 )  


     PseudoPot. # 1 for W  read from file:
     /home/mainadmin/research/danu/pseudo/W.pbe-spn-kjpaw_psl.1.0.0.UPF
     MD5 check sum: 03c3df5b60893f488392c7401945500a
     Pseudo is Projector augmented-wave + core cor, Zval = 14.0
     Generated using &quot;atomic&quot; code by A. Dal Corso  v.6.2.2
     Shape of augmentation charge: PSQ
     Using radial grid of 1273 points,  6 beta functions with: 
                l(1) =   0
                l(2) =   0
                l(3) =   1
                l(4) =   1
                l(5) =   2
                l(6) =   2
     Q(r) pseudized with 0 coefficients 


     PseudoPot. # 2 for S  read from file:
     /home/mainadmin/research/danu/pseudo/S.pbe-n-kjpaw_psl.1.0.0.UPF
     MD5 check sum: fb45dfebcf3e72a4e1bd4a866ec2e262
     Pseudo is Projector augmented-wave + core cor, Zval =  6.0
     Generated using &quot;atomic&quot; code by A. Dal Corso  v.6.3
     Shape of augmentation charge: PSQ
     Using radial grid of 1151 points,  6 beta functions with: 
                l(1) =   0
                l(2) =   0
                l(3) =   1
                l(4) =   1
                l(5) =   2
                l(6) =   2
     Q(r) pseudized with 0 coefficients 


     PseudoPot. # 3 for Se read from file:
     /home/mainadmin/research/danu/pseudo/Se.pbe-dn-kjpaw_psl.1.0.0.UPF
     MD5 check sum: ac240dd2bae32a30e0bf3a38df9c8785
     Pseudo is Projector augmented-wave + core cor, Zval = 16.0
     Generated using &quot;atomic&quot; code by A. Dal Corso  v.6.3
     Shape of augmentation charge: PSQ
     Using radial grid of 1211 points,  6 beta functions with: 
                l(1) =   0
                l(2) =   0
                l(3) =   1
                l(4) =   1
                l(5) =   2
                l(6) =   2
     Q(r) pseudized with 0 coefficients 


     atomic species   valence    mass     pseudopotential
        W             14.00   183.84000     W ( 1.00)
        S              6.00    32.06500     S ( 1.00)
        Se            16.00    78.96000     Se( 1.00)

      6 Sym. Ops. (no inversion) found



   Cartesian axes

     site n.     atom                  positions (alat units)
         1           Se  tau(   1) = (   0.5000000   0.2886751   4.5312500  )
         2           W   tau(   2) = (  -0.0000000   0.5773503   3.9062500  )
         3           S   tau(   3) = (   0.5000000   0.2886751  -4.5312500  )

     number of k points=    44
                       cart. coord. in units 2pi/alat
        k(    1) = (   0.0000000   0.0000000   0.0000000), wk =   0.0050000
        k(    2) = (   0.0000000   0.0577350   0.0000000), wk =   0.0300000
        k(    3) = (   0.0000000   0.1154701   0.0000000), wk =   0.0300000
        k(    4) = (   0.0000000   0.1732051   0.0000000), wk =   0.0300000
        k(    5) = (   0.0000000   0.2309401   0.0000000), wk =   0.0300000
        k(    6) = (   0.0000000   0.2886751   0.0000000), wk =   0.0300000
        k(    7) = (   0.0000000   0.3464102   0.0000000), wk =   0.0300000
        k(    8) = (   0.0000000   0.4041452   0.0000000), wk =   0.0300000
        k(    9) = (   0.0000000   0.4618802   0.0000000), wk =   0.0300000
        k(   10) = (   0.0000000   0.5196152   0.0000000), wk =   0.0300000
        k(   11) = (   0.0000000  -0.5773503   0.0000000), wk =   0.0150000
        k(   12) = (   0.0500000   0.0866025   0.0000000), wk =   0.0300000
        k(   13) = (   0.0500000   0.1443376   0.0000000), wk =   0.0600000
        k(   14) = (   0.0500000   0.2020726   0.0000000), wk =   0.0600000
        k(   15) = (   0.0500000   0.2598076   0.0000000), wk =   0.0600000
        k(   16) = (   0.0500000   0.3175426   0.0000000), wk =   0.0600000
        k(   17) = (   0.0500000   0.3752777   0.0000000), wk =   0.0600000
        k(   18) = (   0.0500000   0.4330127   0.0000000), wk =   0.0600000
        k(   19) = (   0.0500000   0.4907477   0.0000000), wk =   0.0600000
        k(   20) = (   0.0500000   0.5484828   0.0000000), wk =   0.0600000
        k(   21) = (   0.1000000   0.1732051   0.0000000), wk =   0.0300000
        k(   22) = (   0.1000000   0.2309401   0.0000000), wk =   0.0600000
        k(   23) = (   0.1000000   0.2886751   0.0000000), wk =   0.0600000
        k(   24) = (   0.1000000   0.3464102   0.0000000), wk =   0.0600000
        k(   25) = (   0.1000000   0.4041452   0.0000000), wk =   0.0600000
        k(   26) = (   0.1000000   0.4618802   0.0000000), wk =   0.0600000
        k(   27) = (   0.1000000   0.5196152   0.0000000), wk =   0.0600000
        k(   28) = (   0.1000000   0.5773503   0.0000000), wk =   0.0300000
        k(   29) = (   0.1500000   0.2598076   0.0000000), wk =   0.0300000
        k(   30) = (   0.1500000   0.3175426   0.0000000), wk =   0.0600000
        k(   31) = (   0.1500000   0.3752777   0.0000000), wk =   0.0600000
        k(   32) = (   0.1500000   0.4330127   0.0000000), wk =   0.0600000
        k(   33) = (   0.1500000   0.4907477   0.0000000), wk =   0.0600000
        k(   34) = (   0.1500000   0.5484828   0.0000000), wk =   0.0600000
        k(   35) = (   0.2000000   0.3464102   0.0000000), wk =   0.0300000
        k(   36) = (   0.2000000   0.4041452   0.0000000), wk =   0.0600000
        k(   37) = (   0.2000000   0.4618802   0.0000000), wk =   0.0600000
        k(   38) = (   0.2000000   0.5196152   0.0000000), wk =   0.0600000
        k(   39) = (   0.2000000   0.5773503   0.0000000), wk =   0.0300000
        k(   40) = (   0.2500000   0.4330127   0.0000000), wk =   0.0300000
        k(   41) = (   0.2500000   0.4907477   0.0000000), wk =   0.0600000
        k(   42) = (   0.2500000   0.5484828   0.0000000), wk =   0.0600000
        k(   43) = (   0.3000000   0.5196152   0.0000000), wk =   0.0300000
        k(   44) = (   0.3000000   0.5773503   0.0000000), wk =   0.0300000

     Dense  grid:    93827 G-vectors     FFT dimensions: (  30,  30, 240)

     Estimated max dynamical RAM per process >      43.92 MB

     Estimated total dynamical RAM >     527.09 MB

     Check: negative core charge=   -0.000001

     Initial potential from superposition of free atoms

     starting charge      35.9993, renormalised to      36.0000

     negative rho (up, down):  5.774E-04 0.000E+00
     Starting wfcs are   26 randomized atomic wfcs
     Checking if some PAW data can be deallocated... 

     total cpu time spent up to now is        1.7 secs

     Self-consistent Calculation

     iteration #  1     ecut=    60.00 Ry     beta= 0.50
     Davidson diagonalization with overlap
     ethr =  1.00E-02,  avg # of iterations =  2.0

     Threshold (ethr) on eigenvalues was too large:
     Diagonalizing with lowered threshold

     Davidson diagonalization with overlap
     ethr =  4.61E-04,  avg # of iterations =  2.1

     negative rho (up, down):  1.107E-03 0.000E+00

     total cpu time spent up to now is        5.0 secs

     total energy              =   -1228.30589926 Ry
     estimated scf accuracy    <       0.16861868 Ry

     iteration #  2     ecut=    60.00 Ry     beta= 0.50
     Davidson diagonalization with overlap
     ethr =  4.68E-04,  avg # of iterations =  8.4

     negative rho (up, down):  1.413E-03 0.000E+00

     total cpu time spent up to now is        7.7 secs

     total energy              =   -1228.07322256 Ry
     estimated scf accuracy    <       4.16870254 Ry

     iteration #  3     ecut=    60.00 Ry     beta= 0.50
     Davidson diagonalization with overlap
     ethr =  4.68E-04,  avg # of iterations =  7.6

     negative rho (up, down):  4.272E-03 0.000E+00

     total cpu time spent up to now is       10.3 secs

     total energy              =   -1228.37207895 Ry
     estimated scf accuracy    <       0.04849276 Ry

     iteration #  4     ecut=    60.00 Ry     beta= 0.50
     Davidson diagonalization with overlap
     ethr =  1.35E-04,  avg # of iterations =  4.7

     negative rho (up, down):  7.918E-03 0.000E+00

     total cpu time spent up to now is       12.3 secs

     total energy              =   -1228.37530151 Ry
     estimated scf accuracy    <       0.10180177 Ry

     iteration #  5     ecut=    60.00 Ry     beta= 0.50
     Davidson diagonalization with overlap
     ethr =  1.35E-04,  avg # of iterations =  3.6

     negative rho (up, down):  1.528E-02 0.000E+00

     total cpu time spent up to now is       14.2 secs

     total energy              =   -1228.38576482 Ry
     estimated scf accuracy    <       0.01781715 Ry

     iteration #  6     ecut=    60.00 Ry     beta= 0.50
     Davidson diagonalization with overlap
     ethr =  4.95E-05,  avg # of iterations =  3.1

     negative rho (up, down):  3.855E-03 0.000E+00

     total cpu time spent up to now is       16.0 secs

     total energy              =   -1228.36905054 Ry
     estimated scf accuracy    <       0.01862640 Ry

     iteration #  7     ecut=    60.00 Ry     beta= 0.50
     Davidson diagonalization with overlap
     ethr =  4.95E-05,  avg # of iterations =  4.9

     negative rho (up, down):  6.898E-03 0.000E+00

     total cpu time spent up to now is       18.2 secs

     total energy              =   -1228.38153860 Ry
     estimated scf accuracy    <       0.02643499 Ry

     iteration #  8     ecut=    60.00 Ry     beta= 0.50
     Davidson diagonalization with overlap
     ethr =  4.95E-05,  avg # of iterations =  2.0

     negative rho (up, down):  1.862E-03 0.000E+00

     total cpu time spent up to now is       19.9 secs

     total energy              =   -1228.37763094 Ry
     estimated scf accuracy    <       0.02051837 Ry

     iteration #  9     ecut=    60.00 Ry     beta= 0.50
     Davidson diagonalization with overlap
     ethr =  4.95E-05,  avg # of iterations =  2.0

     negative rho (up, down):  8.074E-04 0.000E+00

     total cpu time spent up to now is       21.6 secs

     total energy              =   -1228.37793680 Ry
     estimated scf accuracy    <       0.00896824 Ry

     iteration # 10     ecut=    60.00 Ry     beta= 0.50
     Davidson diagonalization with overlap
     ethr =  2.49E-05,  avg # of iterations =  3.8

     negative rho (up, down):  7.609E-04 0.000E+00

     total cpu time spent up to now is       23.5 secs

     total energy              =   -1228.37916717 Ry
     estimated scf accuracy    <       0.00060360 Ry

     iteration # 11     ecut=    60.00 Ry     beta= 0.50
     Davidson diagonalization with overlap
     ethr =  1.68E-06,  avg # of iterations =  5.2

     negative rho (up, down):  7.623E-04 0.000E+00

     total cpu time spent up to now is       25.7 secs

     total energy              =   -1228.37913910 Ry
     estimated scf accuracy    <       0.00085761 Ry

     iteration # 12     ecut=    60.00 Ry     beta= 0.50
     Davidson diagonalization with overlap
     ethr =  1.68E-06,  avg # of iterations =  4.1

     negative rho (up, down):  7.481E-04 0.000E+00

     total cpu time spent up to now is       27.6 secs

     total energy              =   -1228.37927754 Ry
     estimated scf accuracy    <       0.00010627 Ry

     iteration # 13     ecut=    60.00 Ry     beta= 0.50
     Davidson diagonalization with overlap
     ethr =  2.95E-07,  avg # of iterations =  2.1

     negative rho (up, down):  7.418E-04 0.000E+00

     total cpu time spent up to now is       29.2 secs

     total energy              =   -1228.37926460 Ry
     estimated scf accuracy    <       0.00006726 Ry

     iteration # 14     ecut=    60.00 Ry     beta= 0.50
     Davidson diagonalization with overlap
     ethr =  1.87E-07,  avg # of iterations =  4.0

     negative rho (up, down):  7.443E-04 0.000E+00

     total cpu time spent up to now is       31.2 secs

     total energy              =   -1228.37928111 Ry
     estimated scf accuracy    <       0.00001530 Ry

     iteration # 15     ecut=    60.00 Ry     beta= 0.50
     Davidson diagonalization with overlap
     ethr =  4.25E-08,  avg # of iterations =  1.9

     negative rho (up, down):  7.457E-04 0.000E+00

     total cpu time spent up to now is       32.8 secs

     total energy              =   -1228.37927997 Ry
     estimated scf accuracy    <       0.00001538 Ry

     iteration # 16     ecut=    60.00 Ry     beta= 0.50
     Davidson diagonalization with overlap
     ethr =  4.25E-08,  avg # of iterations =  1.4

     negative rho (up, down):  7.474E-04 0.000E+00

     total cpu time spent up to now is       34.3 secs

     total energy              =   -1228.37927893 Ry
     estimated scf accuracy    <       0.00000953 Ry

     iteration # 17     ecut=    60.00 Ry     beta= 0.50
     Davidson diagonalization with overlap
     ethr =  2.65E-08,  avg # of iterations =  3.3

     negative rho (up, down):  7.462E-04 0.000E+00

     total cpu time spent up to now is       36.1 secs

     total energy              =   -1228.37927964 Ry
     estimated scf accuracy    <       0.00000105 Ry

     iteration # 18     ecut=    60.00 Ry     beta= 0.50
     Davidson diagonalization with overlap
     ethr =  2.91E-09,  avg # of iterations =  5.4

     negative rho (up, down):  7.454E-04 0.000E+00

     total cpu time spent up to now is       38.2 secs

     total energy              =   -1228.37927993 Ry
     estimated scf accuracy    <       0.00000019 Ry

     iteration # 19     ecut=    60.00 Ry     beta= 0.50
     Davidson diagonalization with overlap
     ethr =  5.20E-10,  avg # of iterations =  2.7

     negative rho (up, down):  7.463E-04 0.000E+00

     total cpu time spent up to now is       39.9 secs

     total energy              =   -1228.37927992 Ry
     estimated scf accuracy    <       0.00000027 Ry

     iteration # 20     ecut=    60.00 Ry     beta= 0.50
     Davidson diagonalization with overlap
     ethr =  5.20E-10,  avg # of iterations =  1.2

     negative rho (up, down):  7.466E-04 0.000E+00

     total cpu time spent up to now is       41.4 secs

     total energy              =   -1228.37927985 Ry
     estimated scf accuracy    <       0.00000020 Ry

     iteration # 21     ecut=    60.00 Ry     beta= 0.50
     Davidson diagonalization with overlap
     ethr =  5.20E-10,  avg # of iterations =  5.4

     negative rho (up, down):  7.455E-04 0.000E+00

     total cpu time spent up to now is       43.5 secs

     total energy              =   -1228.37927987 Ry
     estimated scf accuracy    <       0.00000038 Ry

     iteration # 22     ecut=    60.00 Ry     beta= 0.50
     Davidson diagonalization with overlap
     ethr =  5.20E-10,  avg # of iterations =  4.5

     negative rho (up, down):  7.461E-04 0.000E+00

     total cpu time spent up to now is       45.5 secs

     total energy              =   -1228.37927991 Ry
     estimated scf accuracy    <       0.00000011 Ry

     iteration # 23     ecut=    60.00 Ry     beta= 0.50
     Davidson diagonalization with overlap
     ethr =  2.97E-10,  avg # of iterations =  6.0

     negative rho (up, down):  7.463E-04 0.000E+00

     total cpu time spent up to now is       47.8 secs

     total energy              =   -1228.37927998 Ry
     estimated scf accuracy    <       0.00000078 Ry

     iteration # 24     ecut=    60.00 Ry     beta= 0.50
     Davidson diagonalization with overlap
     ethr =  2.97E-10,  avg # of iterations =  1.0

     negative rho (up, down):  7.466E-04 0.000E+00

     total cpu time spent up to now is       49.3 secs

     total energy              =   -1228.37927987 Ry
     estimated scf accuracy    <       0.00000077 Ry

     iteration # 25     ecut=    60.00 Ry     beta= 0.50
     Davidson diagonalization with overlap
     ethr =  2.97E-10,  avg # of iterations =  4.4

     negative rho (up, down):  7.465E-04 0.000E+00

     total cpu time spent up to now is       51.3 secs

     total energy              =   -1228.37927990 Ry
     estimated scf accuracy    <       0.00000007 Ry

     iteration # 26     ecut=    60.00 Ry     beta= 0.50
     Davidson diagonalization with overlap
     ethr =  1.93E-10,  avg # of iterations =  2.1

     negative rho (up, down):  7.463E-04 0.000E+00

     total cpu time spent up to now is       53.0 secs

     total energy              =   -1228.37927991 Ry
     estimated scf accuracy    <       0.00000003 Ry

     iteration # 27     ecut=    60.00 Ry     beta= 0.50
     Davidson diagonalization with overlap
     ethr =  7.62E-11,  avg # of iterations =  4.9

     negative rho (up, down):  7.463E-04 0.000E+00

     total cpu time spent up to now is       54.9 secs

     total energy              =   -1228.37927991 Ry
     estimated scf accuracy    <       0.00000001 Ry

     iteration # 28     ecut=    60.00 Ry     beta= 0.50
     Davidson diagonalization with overlap
     ethr =  2.84E-11,  avg # of iterations =  1.9

     negative rho (up, down):  7.464E-04 0.000E+00

     total cpu time spent up to now is       56.5 secs

     total energy              =   -1228.37927991 Ry
     estimated scf accuracy    <       0.00000001 Ry

     iteration # 29     ecut=    60.00 Ry     beta= 0.50
     Davidson diagonalization with overlap
     ethr =  2.84E-11,  avg # of iterations =  1.2

     negative rho (up, down):  7.463E-04 0.000E+00

     total cpu time spent up to now is       58.0 secs

     total energy              =   -1228.37927991 Ry
     estimated scf accuracy    <       0.00000001 Ry

     iteration # 30     ecut=    60.00 Ry     beta= 0.50
     Davidson diagonalization with overlap
     ethr =  2.84E-11,  avg # of iterations =  2.9

     negative rho (up, down):  7.463E-04 0.000E+00

     total cpu time spent up to now is       59.7 secs

     total energy              =   -1228.37927991 Ry
     estimated scf accuracy    <       0.00000002 Ry

     iteration # 31     ecut=    60.00 Ry     beta= 0.50
     Davidson diagonalization with overlap
     ethr =  2.84E-11,  avg # of iterations =  1.4

     negative rho (up, down):  7.464E-04 0.000E+00

     total cpu time spent up to now is       61.2 secs

     total energy              =   -1228.37927991 Ry
     estimated scf accuracy    <       0.00000002 Ry

     iteration # 32     ecut=    60.00 Ry     beta= 0.50
     Davidson diagonalization with overlap
     ethr =  2.84E-11,  avg # of iterations =  1.1

     negative rho (up, down):  7.463E-04 0.000E+00

     total cpu time spent up to now is       62.7 secs

     total energy              =   -1228.37927991 Ry
     estimated scf accuracy    <       0.00000003 Ry

     iteration # 33     ecut=    60.00 Ry     beta= 0.50
     Davidson diagonalization with overlap
     ethr =  2.84E-11,  avg # of iterations =  1.0

     negative rho (up, down):  7.462E-04 0.000E+00

     total cpu time spent up to now is       64.2 secs

     total energy              =   -1228.37927992 Ry
     estimated scf accuracy    <       0.00000003 Ry

     iteration # 34     ecut=    60.00 Ry     beta= 0.50
     Davidson diagonalization with overlap
     ethr =  2.84E-11,  avg # of iterations =  3.6

     negative rho (up, down):  7.464E-04 0.000E+00

     total cpu time spent up to now is       66.1 secs

     total energy              =   -1228.37927991 Ry
     estimated scf accuracy    <       0.00000007 Ry

     iteration # 35     ecut=    60.00 Ry     beta= 0.50
     Davidson diagonalization with overlap
     ethr =  2.84E-11,  avg # of iterations =  4.3

     negative rho (up, down):  7.467E-04 0.000E+00

     total cpu time spent up to now is       68.0 secs

     total energy              =   -1228.37927991 Ry
     estimated scf accuracy    <       0.00000002 Ry

     iteration # 36     ecut=    60.00 Ry     beta= 0.50
     Davidson diagonalization with overlap
     ethr =  2.84E-11,  avg # of iterations =  3.4

     negative rho (up, down):  7.468E-04 0.000E+00

     total cpu time spent up to now is       70.0 secs

     End of self-consistent calculation

          k = 0.0000 0.0000 0.0000 ( 11811 PWs)   bands (ev):

   -75.2382 -48.4207 -48.4207 -48.4173 -48.4159 -48.4159 -39.4088 -39.1503
   -39.1503 -14.9932 -13.8032  -6.8568  -3.7196  -2.1969  -1.8502  -1.8502
    -0.7804  -0.7804

          k = 0.0000 0.0577 0.0000 ( 11803 PWs)   bands (ev):

   -75.2378 -48.4207 -48.4206 -48.4172 -48.4159 -48.4159 -39.4078 -39.1569
   -39.1519 -14.9574 -13.7755  -6.8006  -3.7277  -2.1744  -1.9631  -1.8095
    -0.8711  -0.8459

          k = 0.0000 0.1155 0.0000 ( 11793 PWs)   bands (ev):

   -75.2369 -48.4207 -48.4202 -48.4170 -48.4161 -48.4159 -39.4049 -39.1761
   -39.1566 -14.8516 -13.6937  -6.6359  -3.7535  -2.2862  -2.1106  -1.6926
    -1.1537  -1.0223

          k = 0.0000 0.1732 0.0000 ( 11795 PWs)   bands (ev):

   -75.2353 -48.4209 -48.4196 -48.4167 -48.4163 -48.4159 -39.4003 -39.2059
   -39.1638 -14.6801 -13.5612  -6.3751  -3.8034  -2.7661  -2.0408  -1.6195
    -1.5159  -1.2660

          k = 0.0000 0.2309 0.0000 ( 11817 PWs)   bands (ev):

   -75.2334 -48.4210 -48.4189 -48.4167 -48.4161 -48.4159 -39.3946 -39.2432
   -39.1728 -14.4506 -13.3840  -6.0425  -3.8993  -3.3466  -2.2128  -1.9912
    -1.5372  -1.3085

          k = 0.0000 0.2887 0.0000 ( 11777 PWs)   bands (ev):

   -75.2313 -48.4211 -48.4182 -48.4170 -48.4157 -48.4154 -39.3882 -39.2843
   -39.1829 -14.1753 -13.1720  -5.6841  -4.1600  -3.8850  -2.7587  -2.0498
    -1.8014  -1.1197

          k = 0.0000 0.3464 0.0000 ( 11759 PWs)   bands (ev):

   -75.2292 -48.4213 -48.4176 -48.4173 -48.4154 -48.4148 -39.3818 -39.3251
   -39.1929 -13.8723 -12.9392  -5.4161  -4.6856  -4.2197  -3.1518  -2.1451
    -2.0394  -0.9935

          k = 0.0000 0.4041 0.0000 ( 11765 PWs)   bands (ev):

   -75.2272 -48.4215 -48.4176 -48.4174 -48.4149 -48.4142 -39.3761 -39.3617
   -39.2019 -13.5682 -12.7059  -5.6104  -4.9476  -4.4846  -3.3556  -2.2363
    -2.1850  -0.9426

          k = 0.0000 0.4619 0.0000 ( 11735 PWs)   bands (ev):

   -75.2257 -48.4216 -48.4178 -48.4173 -48.4144 -48.4137 -39.3907 -39.3713
   -39.2090 -13.2998 -12.4995  -6.0744  -5.1792  -4.4958  -3.4492  -2.3829
    -2.1255  -0.9411

          k = 0.0000 0.5196 0.0000 ( 11721 PWs)   bands (ev):

   -75.2247 -48.4217 -48.4180 -48.4172 -48.4140 -48.4133 -39.4091 -39.3684
   -39.2136 -13.1115 -12.3536  -6.4185  -5.4069  -4.4474  -3.4905  -2.4731
    -2.0199  -0.9548

          k = 0.0000-0.5774 0.0000 ( 11704 PWs)   bands (ev):

   -75.2244 -48.4217 -48.4180 -48.4172 -48.4138 -48.4131 -39.4155 -39.3674
   -39.2152 -13.0432 -12.3003  -6.5430  -5.4927  -4.4315  -3.5023  -2.5035
    -1.9683  -0.9618

          k = 0.0500 0.0866 0.0000 ( 11787 PWs)   bands (ev):

   -75.2372 -48.4207 -48.4203 -48.4171 -48.4160 -48.4159 -39.4058 -39.1697
   -39.1552 -14.8867 -13.7208  -6.6901  -3.7444  -2.1840  -2.1266  -1.7322
    -1.0677  -0.9571

          k = 0.0500 0.1443 0.0000 ( 11804 PWs)   bands (ev):

   -75.2359 -48.4208 -48.4199 -48.4168 -48.4162 -48.4159 -39.4021 -39.1939
   -39.1614 -14.7479 -13.6136  -6.4768  -3.7801  -2.5758  -2.0621  -1.5914
    -1.4583  -1.1539

          k = 0.0500 0.2021 0.0000 ( 11805 PWs)   bands (ev):

   -75.2342 -48.4209 -48.4193 -48.4166 -48.4163 -48.4159 -39.3969 -39.2269
   -39.1700 -14.5473 -13.4586  -6.1777  -3.8441  -3.1001  -2.0378  -1.9648
    -1.4173  -1.3988

          k = 0.0500 0.2598 0.0000 ( 11790 PWs)   bands (ev):

   -75.2322 -48.4210 -48.4186 -48.4168 -48.4160 -48.4155 -39.3909 -39.2655
   -39.1802 -14.2944 -13.2636  -5.8250  -3.9838  -3.6755  -2.5771  -2.0229
    -1.6751  -1.2266

          k = 0.0500 0.3175 0.0000 ( 11777 PWs)   bands (ev):

   -75.2301 -48.4211 -48.4179 -48.4171 -48.4157 -48.4150 -39.3845 -39.3059
   -39.1908 -14.0043 -13.0404  -5.4852  -4.4239  -4.0598  -3.0551  -2.1253
    -1.9344  -1.0846

          k = 0.0500 0.3753 0.0000 ( 11759 PWs)   bands (ev):

   -75.2280 -48.4213 -48.4175 -48.4174 -48.4153 -48.4143 -39.3784 -39.3440
   -39.2009 -13.6990 -12.8059  -5.3984  -4.8543  -4.3683  -3.3286  -2.2359
    -2.1508  -1.0211

          k = 0.0500 0.4330 0.0000 ( 11738 PWs)   bands (ev):

   -75.2263 -48.4214 -48.4177 -48.4173 -48.4147 -48.4138 -39.3766 -39.3729
   -39.2094 -13.4099 -12.5838  -5.8176  -5.0232  -4.5040  -3.4437  -2.3815
    -2.2020  -1.0204

          k = 0.0500 0.4907 0.0000 ( 11711 PWs)   bands (ev):

   -75.2251 -48.4215 -48.4179 -48.4173 -48.4142 -48.4134 -39.3997 -39.3694
   -39.2156 -13.1780 -12.4047  -6.2385  -5.2836  -4.4502  -3.4869  -2.5150
    -2.1271  -1.0400

          k = 0.0500 0.5485 0.0000 ( 11689 PWs)   bands (ev):

   -75.2244 -48.4215 -48.4180 -48.4172 -48.4139 -48.4132 -39.4119 -39.3674
   -39.2189 -13.0471 -12.3027  -6.4773  -5.4486  -4.4149  -3.5001  -2.5871
    -2.0489  -1.0530

          k = 0.1000 0.1732 0.0000 ( 11809 PWs)   bands (ev):

   -75.2345 -48.4208 -48.4194 -48.4165 -48.4164 -48.4158 -39.3977 -39.2207
   -39.1697 -14.5800 -13.4838  -6.2234  -3.8239  -3.0066  -2.0150  -1.9350
    -1.4580  -1.3418

          k = 0.1000 0.2309 0.0000 ( 11788 PWs)   bands (ev):

   -75.2327 -48.4208 -48.4189 -48.4167 -48.4162 -48.4155 -39.3923 -39.2540
   -39.1804 -14.3555 -13.3105  -5.8972  -3.8967  -3.5268  -2.5086  -2.0160
    -1.5805  -1.3187

          k = 0.1000 0.2887 0.0000 ( 11766 PWs)   bands (ev):

   -75.2306 -48.4208 -48.4183 -48.4169 -48.4160 -48.4150 -39.3862 -39.2906
   -39.1924 -14.0868 -13.1034  -5.5387  -4.1798  -3.9382  -3.0500  -2.1268
    -1.8442  -1.1993

          k = 0.1000 0.3464 0.0000 ( 11775 PWs)   bands (ev):

   -75.2286 -48.4209 -48.4179 -48.4172 -48.4158 -48.4144 -39.3801 -39.3270
   -39.2044 -13.7919 -12.8765  -5.2610  -4.7011  -4.1944  -3.4073  -2.2940
    -2.1022  -1.1499

          k = 0.1000 0.4041 0.0000 ( 11761 PWs)   bands (ev):

   -75.2268 -48.4210 -48.4176 -48.4174 -48.4153 -48.4139 -39.3747 -39.3595
   -39.2152 -13.4971 -12.6496  -5.5024  -4.8593  -4.4631  -3.5318  -2.4594
    -2.2955  -1.1693

          k = 0.1000 0.4619 0.0000 ( 11718 PWs)   bands (ev):

   -75.2253 -48.4211 -48.4177 -48.4174 -48.4148 -48.4134 -39.3854 -39.3702
   -39.2238 -13.2381 -12.4496  -5.9610  -5.0897  -4.4387  -3.5436  -2.6410
    -2.3444  -1.1966

          k = 0.1000 0.5196 0.0000 ( 11693 PWs)   bands (ev):

   -75.2244 -48.4211 -48.4178 -48.4174 -48.4143 -48.4133 -39.4018 -39.3674
   -39.2293 -13.0572 -12.3088  -6.2892  -5.3208  -4.3736  -3.5182  -2.7884
    -2.3145  -1.2000

          k = 0.1000 0.5774 0.0000 ( 11674 PWs)   bands (ev):

   -75.2241 -48.4211 -48.4179 -48.4173 -48.4140 -48.4132 -39.4074 -39.3665
   -39.2312 -12.9918 -12.2574  -6.4072  -5.4062  -4.3542  -3.5017  -2.8462
    -2.2945  -1.1949

          k = 0.1500 0.2598 0.0000 ( 11793 PWs)   bands (ev):

   -75.2308 -48.4207 -48.4185 -48.4169 -48.4162 -48.4150 -39.3868 -39.2846
   -39.1937 -14.1148 -13.1248  -5.5578  -4.0665  -3.9010  -3.0670  -2.1312
    -1.8055  -1.2475

          k = 0.1500 0.3175 0.0000 ( 11764 PWs)   bands (ev):

   -75.2289 -48.4205 -48.4181 -48.4171 -48.4161 -48.4144 -39.3810 -39.3159
   -39.2084 -13.8400 -12.9129  -5.2094  -4.5552  -4.0266  -3.5507  -2.3461
    -2.0658  -1.2256

          k = 0.1500 0.3753 0.0000 ( 11738 PWs)   bands (ev):

   -75.2271 -48.4205 -48.4178 -48.4173 -48.4158 -48.4138 -39.3756 -39.3450
   -39.2228 -13.5529 -12.6914  -5.1870  -4.7903  -4.3254  -3.7340  -2.5859
    -2.3331  -1.2643

          k = 0.1500 0.4330 0.0000 ( 11724 PWs)   bands (ev):

   -75.2255 -48.4205 -48.4177 -48.4174 -48.4154 -48.4135 -39.3714 -39.3690
   -39.2352 -13.2835 -12.4829  -5.6347  -4.8491  -4.4431  -3.7167  -2.7971
    -2.5618  -1.2918

          k = 0.1500 0.4907 0.0000 ( 11709 PWs)   bands (ev):

   -75.2244 -48.4206 -48.4177 -48.4175 -48.4149 -48.4133 -39.3873 -39.3674
   -39.2443 -13.0696 -12.3162  -6.0088  -5.1258  -4.3333  -3.6346  -2.9937
    -2.6936  -1.2687

          k = 0.1500 0.5485 0.0000 ( 11686 PWs)   bands (ev):

   -75.2238 -48.4206 -48.4177 -48.4175 -48.4144 -48.4133 -39.3965 -39.3656
   -39.2491 -12.9498 -12.2219  -6.2172  -5.2880  -4.2836  -3.5367  -3.1566
    -2.7376  -1.2291

          k = 0.2000 0.3464 0.0000 ( 11751 PWs)   bands (ev):

   -75.2272 -48.4203 -48.4180 -48.4172 -48.4161 -48.4138 -39.3759 -39.3390
   -39.2264 -13.5721 -12.7057  -5.0015  -4.8334  -4.1674  -3.9158  -2.6533
    -2.3343  -1.2895

          k = 0.2000 0.4041 0.0000 ( 11717 PWs)   bands (ev):

   -75.2256 -48.4201 -48.4178 -48.4172 -48.4159 -48.4134 -39.3712 -39.3583
   -39.2441 -13.3079 -12.5006  -5.3707  -4.6330  -4.4744  -3.9368  -2.9696
    -2.6243  -1.3202

          k = 0.2000 0.4619 0.0000 ( 11713 PWs)   bands (ev):

   -75.2244 -48.4200 -48.4178 -48.4173 -48.4155 -48.4133 -39.3729 -39.3673
   -39.2590 -13.0795 -12.3220  -5.7090  -4.9100  -4.3287  -3.8623  -3.2201
    -2.9024  -1.2754

          k = 0.2000 0.5196 0.0000 ( 11688 PWs)   bands (ev):

   -75.2236 -48.4199 -48.4178 -48.4174 -48.4150 -48.4134 -39.3816 -39.3650
   -39.2690 -12.9224 -12.1979  -5.9445  -5.1257  -4.2369  -3.7391  -3.3831
    -3.1259  -1.1916

          k = 0.2000 0.5774 0.0000 ( 11684 PWs)   bands (ev):

   -75.2233 -48.4199 -48.4178 -48.4174 -48.4148 -48.4135 -39.3845 -39.3642
   -39.2726 -12.8660 -12.1531  -6.0295  -5.2011  -4.2162  -3.6364  -3.4768
    -3.2165  -1.1494

          k = 0.2500 0.4330 0.0000 ( 11731 PWs)   bands (ev):

   -75.2244 -48.4197 -48.4179 -48.4172 -48.4158 -48.4134 -39.3678 -39.3657
   -39.2658 -13.0833 -12.3242  -5.5588  -4.8000  -4.3409  -4.0016  -3.3513
    -2.9302  -1.2697

          k = 0.2500 0.4907 0.0000 ( 11702 PWs)   bands (ev):

   -75.2235 -48.4195 -48.4180 -48.4170 -48.4155 -48.4134 -39.3689 -39.3647
   -39.2845 -12.9090 -12.1860  -5.6958  -5.0071  -4.2205  -3.9905  -3.6093
    -3.2095  -1.1484

          k = 0.2500 0.5485 0.0000 ( 11689 PWs)   bands (ev):

   -75.2230 -48.4194 -48.4180 -48.4169 -48.4153 -48.4136 -39.3686 -39.3633
   -39.2959 -12.8132 -12.1093  -5.7682  -5.1230  -4.2324  -3.9116  -3.6931
    -3.4137  -1.0456

          k = 0.3000 0.5196 0.0000 ( 11684 PWs)   bands (ev):

   -75.2229 -48.4191 -48.4182 -48.4166 -48.4156 -48.4136 -39.3630 -39.3588
   -39.3083 -12.7952 -12.0942  -5.6007  -5.1296  -4.2672  -4.0407  -3.8053
    -3.4239  -0.9972

          k = 0.3000 0.5774 0.0000 ( 11696 PWs)   bands (ev):

   -75.2227 -48.4189 -48.4183 -48.4164 -48.4157 -48.4138 -39.3624 -39.3505
   -39.3214 -12.7551 -12.0617  -5.5148  -5.2194  -4.3561  -3.9835  -3.8809
    -3.5002  -0.9283

     highest occupied level (ev):    -0.7804

!    total energy              =   -1228.37927991 Ry
     total all-electron energy =    -37944.469710 Ry
     estimated scf accuracy    <          2.6E-09 Ry

     The total energy is the sum of the following terms:
     one-electron contribution =   -2749.50396570 Ry
     hartree contribution      =    1372.31212926 Ry
     xc contribution           =     -73.23283713 Ry
     ewald contribution        =    1014.62638954 Ry
     one-center paw contrib.   =    -792.58099588 Ry

     convergence has been achieved in  36 iterations

     Writing all to output data dir ./work/WSSe.save/

     init_run     :      1.42s CPU      1.51s WALL (       1 calls)
     electrons    :     64.17s CPU     68.31s WALL (       1 calls)

     Called by init_run:
     wfcinit      :      0.71s CPU      0.77s WALL (       1 calls)
     potinit      :      0.16s CPU      0.17s WALL (       1 calls)
     hinit0       :      0.44s CPU      0.44s WALL (       1 calls)

     Called by electrons:
     c_bands      :     49.87s CPU     53.30s WALL (      37 calls)
     sum_band     :      9.47s CPU     10.09s WALL (      37 calls)
     v_of_rho     :      0.20s CPU      0.23s WALL (      37 calls)
     newd         :      2.63s CPU      2.65s WALL (      37 calls)
     PAW_pot      :      1.94s CPU      2.00s WALL (      37 calls)
     mix_rho      :      0.12s CPU      0.13s WALL (      37 calls)

     Called by c_bands:
     init_us_2    :      0.91s CPU      0.96s WALL (    3300 calls)
     init_us_2:cp :      0.91s CPU      0.96s WALL (    3300 calls)
     cegterg      :     47.27s CPU     50.62s WALL (    1628 calls)

     Called by *egterg:
     cdiaghg      :      1.79s CPU      1.86s WALL (    7071 calls)
     h_psi        :     30.99s CPU     33.86s WALL (    7159 calls)
     s_psi        :      4.01s CPU      4.23s WALL (    7159 calls)
     g_psi        :      0.16s CPU      0.16s WALL (    5487 calls)

     Called by h_psi:
     h_psi:calbec :      4.11s CPU      4.60s WALL (    7159 calls)
     vloc_psi     :     22.93s CPU     24.98s WALL (    7159 calls)
     add_vuspsi   :      3.86s CPU      4.19s WALL (    7159 calls)

     General routines
     calbec       :      5.65s CPU      6.30s WALL (    8787 calls)
     fft          :      0.36s CPU      0.37s WALL (     408 calls)
     ffts         :      0.01s CPU      0.01s WALL (      37 calls)
     fftw         :     25.26s CPU     27.52s WALL (  177942 calls)

     Parallel routines

     PWSCF        :   1m 5.90s CPU   1m10.23s WALL


   This run was terminated on:  11:15:19  30Jan2023            

=------------------------------------------------------------------------------=
   JOB DONE.
=------------------------------------------------------------------------------=
