
     Program PWSCF v.7.1 starts on 30Jan2023 at 11: 6:47 

     This program is part of the open-source Quantum ESPRESSO suite
     for quantum simulation of materials; please cite
         "P. Giannozzi et al., J. Phys.:Condens. Matter 21 395502 (2009);
         "P. Giannozzi et al., J. Phys.:Condens. Matter 29 465901 (2017);
         "P. Giannozzi et al., J. Chem. Phys. 152 154105 (2020);
          URL http://www.quantum-espresso.org", 
     in publications or presentations arising from this work. More details at
     http://www.quantum-espresso.org/quote

     Parallel version (MPI), running on    12 processors

     MPI processes distributed on     1 nodes
     122262 MiB available memory on the printing compute node when the environment starts

     Waiting for input...
     Reading input from standard input

     Current dimensions of program PWSCF are:
     Max number of different atomic species (ntypx) = 10
     Max number of k-points (npk) =  40000
     Max angular momentum in pseudopotentials (lmaxx) =  4
     file W.pbe-spn-kjpaw_psl.1.0.0.UPF: wavefunction(s)  6S 5P 5D renormalized
     file S.pbe-n-kjpaw_psl.1.0.0.UPF: wavefunction(s)  3S 3P renormalized
     file Se.pbe-dn-kjpaw_psl.1.0.0.UPF: wavefunction(s)  4S 4P 3D renormalized
     Message from routine setup:
     using ibrav=0 with symmetry is DISCOURAGED, use correct ibrav instead

     R & G space division:  proc/nbgrp/npool/nimage =      12
     Subspace diagonalization in iterative solution of the eigenvalue problem:
     a serial algorithm will be used


     Parallelization info
     --------------------
     sticks:   dense  smooth     PW     G-vecs:    dense   smooth      PW
     Min          49      49     14                 7805     7805    1212
     Max          50      50     15                 7840     7840    1238
     Sum         595     595    169                93827    93827   14695

     Using Slab Decomposition



     bravais-lattice index     =            0
     lattice parameter (alat)  =       6.0471  a.u.
     unit-cell volume          =    1496.1227 (a.u.)^3
     number of atoms/cell      =            3
     number of atomic types    =            3
     number of electrons       =        36.00
     number of Kohn-Sham states=           18
     kinetic-energy cutoff     =      60.0000  Ry
     charge density cutoff     =     240.0000  Ry
     scf convergence threshold =      1.0E-08
     mixing beta               =       0.5000
     number of iterations used =            8  plain     mixing
     Exchange-correlation= SLA  PW   PBX  PBC
                           (   1   4   3   4   0   0   0)

     celldm(1)=   6.047124  celldm(2)=   0.000000  celldm(3)=   0.000000
     celldm(4)=   0.000000  celldm(5)=   0.000000  celldm(6)=   0.000000

     crystal axes: (cart. coord. in units of alat)
               a(1) = (   1.000000   0.000000   0.000000 )  
               a(2) = (  -0.500000   0.866025   0.000000 )  
               a(3) = (   0.000000   0.000000   7.812500 )  

     reciprocal axes: (cart. coord. in units 2 pi/alat)
               b(1) = (  1.000000  0.577350 -0.000000 )  
               b(2) = (  0.000000  1.154701  0.000000 )  
               b(3) = (  0.000000 -0.000000  0.128000 )  


     PseudoPot. # 1 for W  read from file:
     /home/mainadmin/research/danu/pseudo/W.pbe-spn-kjpaw_psl.1.0.0.UPF
     MD5 check sum: 03c3df5b60893f488392c7401945500a
     Pseudo is Projector augmented-wave + core cor, Zval = 14.0
     Generated using &quot;atomic&quot; code by A. Dal Corso  v.6.2.2
     Shape of augmentation charge: PSQ
     Using radial grid of 1273 points,  6 beta functions with: 
                l(1) =   0
                l(2) =   0
                l(3) =   1
                l(4) =   1
                l(5) =   2
                l(6) =   2
     Q(r) pseudized with 0 coefficients 


     PseudoPot. # 2 for S  read from file:
     /home/mainadmin/research/danu/pseudo/S.pbe-n-kjpaw_psl.1.0.0.UPF
     MD5 check sum: fb45dfebcf3e72a4e1bd4a866ec2e262
     Pseudo is Projector augmented-wave + core cor, Zval =  6.0
     Generated using &quot;atomic&quot; code by A. Dal Corso  v.6.3
     Shape of augmentation charge: PSQ
     Using radial grid of 1151 points,  6 beta functions with: 
                l(1) =   0
                l(2) =   0
                l(3) =   1
                l(4) =   1
                l(5) =   2
                l(6) =   2
     Q(r) pseudized with 0 coefficients 


     PseudoPot. # 3 for Se read from file:
     /home/mainadmin/research/danu/pseudo/Se.pbe-dn-kjpaw_psl.1.0.0.UPF
     MD5 check sum: ac240dd2bae32a30e0bf3a38df9c8785
     Pseudo is Projector augmented-wave + core cor, Zval = 16.0
     Generated using &quot;atomic&quot; code by A. Dal Corso  v.6.3
     Shape of augmentation charge: PSQ
     Using radial grid of 1211 points,  6 beta functions with: 
                l(1) =   0
                l(2) =   0
                l(3) =   1
                l(4) =   1
                l(5) =   2
                l(6) =   2
     Q(r) pseudized with 0 coefficients 


     atomic species   valence    mass     pseudopotential
        W             14.00   183.84000     W ( 1.00)
        S              6.00    32.06500     S ( 1.00)
        Se            16.00    78.96000     Se( 1.00)

      6 Sym. Ops. (no inversion) found



   Cartesian axes

     site n.     atom                  positions (alat units)
         1           Se  tau(   1) = (   0.5000000   0.2886751   4.5312500  )
         2           W   tau(   2) = (  -0.0000000   0.5773503   3.9062500  )
         3           S   tau(   3) = (   0.5000000   0.2886751  -4.5312500  )

     number of k points=     5
                       cart. coord. in units 2pi/alat
        k(    1) = (   0.0000000   0.0000000   0.0000000), wk =   0.0800000
        k(    2) = (   0.0000000   0.2309401   0.0000000), wk =   0.4800000
        k(    3) = (   0.0000000   0.4618802   0.0000000), wk =   0.4800000
        k(    4) = (   0.2000000   0.3464102   0.0000000), wk =   0.4800000
        k(    5) = (   0.2000000   0.5773503   0.0000000), wk =   0.4800000

     Dense  grid:    93827 G-vectors     FFT dimensions: (  30,  30, 240)

     Estimated max dynamical RAM per process >      33.45 MB

     Estimated total dynamical RAM >     401.38 MB

     Check: negative core charge=   -0.000001

     Initial potential from superposition of free atoms

     starting charge      35.9993, renormalised to      36.0000

     negative rho (up, down):  5.774E-04 0.000E+00
     Starting wfcs are   26 randomized atomic wfcs
     Checking if some PAW data can be deallocated... 

     total cpu time spent up to now is        1.1 secs

     Self-consistent Calculation

     iteration #  1     ecut=    60.00 Ry     beta= 0.50
     Davidson diagonalization with overlap
     ethr =  1.00E-02,  avg # of iterations =  2.0

     Threshold (ethr) on eigenvalues was too large:
     Diagonalizing with lowered threshold

     Davidson diagonalization with overlap
     ethr =  4.51E-04,  avg # of iterations =  2.2

     negative rho (up, down):  1.034E-03 0.000E+00

     total cpu time spent up to now is        1.8 secs

     total energy              =   -1228.30734466 Ry
     estimated scf accuracy    <       0.16544793 Ry

     iteration #  2     ecut=    60.00 Ry     beta= 0.50
     Davidson diagonalization with overlap
     ethr =  4.60E-04,  avg # of iterations =  8.2

     negative rho (up, down):  1.240E-03 0.000E+00

     total cpu time spent up to now is        2.2 secs

     total energy              =   -1228.08371650 Ry
     estimated scf accuracy    <       3.98116699 Ry

     iteration #  3     ecut=    60.00 Ry     beta= 0.50
     Davidson diagonalization with overlap
     ethr =  4.60E-04,  avg # of iterations =  7.6

     negative rho (up, down):  3.692E-03 0.000E+00

     total cpu time spent up to now is        2.7 secs

     total energy              =   -1228.37202120 Ry
     estimated scf accuracy    <       0.05612262 Ry

     iteration #  4     ecut=    60.00 Ry     beta= 0.50
     Davidson diagonalization with overlap
     ethr =  1.56E-04,  avg # of iterations =  4.2

     negative rho (up, down):  6.762E-03 0.000E+00

     total cpu time spent up to now is        3.1 secs

     total energy              =   -1228.37538147 Ry
     estimated scf accuracy    <       0.07146899 Ry

     iteration #  5     ecut=    60.00 Ry     beta= 0.50
     Davidson diagonalization with overlap
     ethr =  1.56E-04,  avg # of iterations =  3.2

     negative rho (up, down):  1.440E-02 0.000E+00

     total cpu time spent up to now is        3.5 secs

     total energy              =   -1228.38351165 Ry
     estimated scf accuracy    <       0.01363813 Ry

     iteration #  6     ecut=    60.00 Ry     beta= 0.50
     Davidson diagonalization with overlap
     ethr =  3.79E-05,  avg # of iterations =  4.8

     negative rho (up, down):  3.122E-03 0.000E+00

     total cpu time spent up to now is        3.9 secs

     total energy              =   -1228.37194839 Ry
     estimated scf accuracy    <       0.01460408 Ry

     iteration #  7     ecut=    60.00 Ry     beta= 0.50
     Davidson diagonalization with overlap
     ethr =  3.79E-05,  avg # of iterations =  5.0

     negative rho (up, down):  5.506E-03 0.000E+00

     total cpu time spent up to now is        4.4 secs

     total energy              =   -1228.37617868 Ry
     estimated scf accuracy    <       0.05873731 Ry

     iteration #  8     ecut=    60.00 Ry     beta= 0.50
     Davidson diagonalization with overlap
     ethr =  3.79E-05,  avg # of iterations =  4.2

     negative rho (up, down):  2.066E-03 0.000E+00

     total cpu time spent up to now is        4.8 secs

     total energy              =   -1228.37778198 Ry
     estimated scf accuracy    <       0.01036317 Ry

     iteration #  9     ecut=    60.00 Ry     beta= 0.50
     Davidson diagonalization with overlap
     ethr =  2.88E-05,  avg # of iterations =  2.2

     negative rho (up, down):  8.109E-04 0.000E+00

     total cpu time spent up to now is        5.2 secs

     total energy              =   -1228.37749579 Ry
     estimated scf accuracy    <       0.00569863 Ry

     iteration # 10     ecut=    60.00 Ry     beta= 0.50
     Davidson diagonalization with overlap
     ethr =  1.58E-05,  avg # of iterations =  4.0

     negative rho (up, down):  7.518E-04 0.000E+00

     total cpu time spent up to now is        5.6 secs

     total energy              =   -1228.37853686 Ry
     estimated scf accuracy    <       0.00048890 Ry

     iteration # 11     ecut=    60.00 Ry     beta= 0.50
     Davidson diagonalization with overlap
     ethr =  1.36E-06,  avg # of iterations =  3.4

     negative rho (up, down):  7.435E-04 0.000E+00

     total cpu time spent up to now is        6.0 secs

     total energy              =   -1228.37848417 Ry
     estimated scf accuracy    <       0.00048915 Ry

     iteration # 12     ecut=    60.00 Ry     beta= 0.50
     Davidson diagonalization with overlap
     ethr =  1.36E-06,  avg # of iterations =  5.0

     negative rho (up, down):  7.434E-04 0.000E+00

     total cpu time spent up to now is        6.4 secs

     total energy              =   -1228.37858018 Ry
     estimated scf accuracy    <       0.00046630 Ry

     iteration # 13     ecut=    60.00 Ry     beta= 0.50
     Davidson diagonalization with overlap
     ethr =  1.30E-06,  avg # of iterations =  2.0

     negative rho (up, down):  7.456E-04 0.000E+00

     total cpu time spent up to now is        6.8 secs

     total energy              =   -1228.37855733 Ry
     estimated scf accuracy    <       0.00013241 Ry

     iteration # 14     ecut=    60.00 Ry     beta= 0.50
     Davidson diagonalization with overlap
     ethr =  3.68E-07,  avg # of iterations =  5.8

     negative rho (up, down):  7.475E-04 0.000E+00

     total cpu time spent up to now is        7.2 secs

     total energy              =   -1228.37859546 Ry
     estimated scf accuracy    <       0.00035934 Ry

     iteration # 15     ecut=    60.00 Ry     beta= 0.50
     Davidson diagonalization with overlap
     ethr =  3.68E-07,  avg # of iterations =  2.4

     negative rho (up, down):  7.459E-04 0.000E+00

     total cpu time spent up to now is        7.6 secs

     total energy              =   -1228.37859779 Ry
     estimated scf accuracy    <       0.00011471 Ry

     iteration # 16     ecut=    60.00 Ry     beta= 0.50
     Davidson diagonalization with overlap
     ethr =  3.19E-07,  avg # of iterations =  1.4

     negative rho (up, down):  7.455E-04 0.000E+00

     total cpu time spent up to now is        8.0 secs

     total energy              =   -1228.37859973 Ry
     estimated scf accuracy    <       0.00005961 Ry

     iteration # 17     ecut=    60.00 Ry     beta= 0.50
     Davidson diagonalization with overlap
     ethr =  1.66E-07,  avg # of iterations =  2.2

     negative rho (up, down):  7.453E-04 0.000E+00

     total cpu time spent up to now is        8.3 secs

     total energy              =   -1228.37859936 Ry
     estimated scf accuracy    <       0.00002855 Ry

     iteration # 18     ecut=    60.00 Ry     beta= 0.50
     Davidson diagonalization with overlap
     ethr =  7.93E-08,  avg # of iterations =  5.2

     negative rho (up, down):  7.439E-04 0.000E+00

     total cpu time spent up to now is        8.8 secs

     total energy              =   -1228.37860380 Ry
     estimated scf accuracy    <       0.00000070 Ry

     iteration # 19     ecut=    60.00 Ry     beta= 0.50
     Davidson diagonalization with overlap
     ethr =  1.94E-09,  avg # of iterations =  4.8

     negative rho (up, down):  7.440E-04 0.000E+00

     total cpu time spent up to now is        9.2 secs

     total energy              =   -1228.37860413 Ry
     estimated scf accuracy    <       0.00000308 Ry

     iteration # 20     ecut=    60.00 Ry     beta= 0.50
     Davidson diagonalization with overlap
     ethr =  1.94E-09,  avg # of iterations =  1.0

     negative rho (up, down):  7.441E-04 0.000E+00

     total cpu time spent up to now is        9.6 secs

     total energy              =   -1228.37860413 Ry
     estimated scf accuracy    <       0.00000314 Ry

     iteration # 21     ecut=    60.00 Ry     beta= 0.50
     Davidson diagonalization with overlap
     ethr =  1.94E-09,  avg # of iterations =  1.0

     negative rho (up, down):  7.459E-04 0.000E+00

     total cpu time spent up to now is        9.9 secs

     total energy              =   -1228.37860395 Ry
     estimated scf accuracy    <       0.00000319 Ry

     iteration # 22     ecut=    60.00 Ry     beta= 0.50
     Davidson diagonalization with overlap
     ethr =  1.94E-09,  avg # of iterations =  1.8

     negative rho (up, down):  7.464E-04 0.000E+00

     total cpu time spent up to now is       10.3 secs

     total energy              =   -1228.37860385 Ry
     estimated scf accuracy    <       0.00000244 Ry

     iteration # 23     ecut=    60.00 Ry     beta= 0.50
     Davidson diagonalization with overlap
     ethr =  1.94E-09,  avg # of iterations =  2.4

     negative rho (up, down):  7.474E-04 0.000E+00

     total cpu time spent up to now is       10.7 secs

     total energy              =   -1228.37860368 Ry
     estimated scf accuracy    <       0.00000139 Ry

     iteration # 24     ecut=    60.00 Ry     beta= 0.50
     Davidson diagonalization with overlap
     ethr =  1.94E-09,  avg # of iterations =  5.2

     negative rho (up, down):  7.463E-04 0.000E+00

     total cpu time spent up to now is       11.1 secs

     End of self-consistent calculation

          k = 0.0000 0.0000 0.0000 ( 11811 PWs)   bands (ev):

   -75.2134 -48.4053 -48.4053 -48.4027 -48.4010 -48.4010 -39.3847 -39.1268
   -39.1268 -14.9806 -13.7906  -6.8424  -3.7089  -2.1810  -1.8319  -1.8319
    -0.7638  -0.7637

          k = 0.0000 0.2309 0.0000 ( 11817 PWs)   bands (ev):

   -75.2086 -48.4056 -48.4036 -48.4019 -48.4013 -48.4009 -39.3705 -39.2197
   -39.1493 -14.4380 -13.3714  -6.0285  -3.8870  -3.3311  -2.1995  -1.9744
    -1.5212  -1.2916

          k = 0.0000 0.4619 0.0000 ( 11735 PWs)   bands (ev):

   -75.2009 -48.4063 -48.4029 -48.4023 -48.3990 -48.3989 -39.3673 -39.3472
   -39.1855 -13.2870 -12.4868  -6.0609  -5.1655  -4.4816  -3.4367  -2.3673
    -2.1092  -0.9278

          k = 0.2000 0.3464 0.0000 ( 11751 PWs)   bands (ev):

   -75.2024 -48.4049 -48.4029 -48.4022 -48.4012 -48.3989 -39.3518 -39.3155
   -39.2029 -13.5594 -12.6930  -4.9878  -4.8194  -4.1539  -3.9020  -2.6383
    -2.3207  -1.2735

          k = 0.2000 0.5774 0.0000 ( 11684 PWs)   bands (ev):

   -75.1985 -48.4047 -48.4028 -48.4023 -48.3994 -48.3987 -39.3611 -39.3401
   -39.2491 -12.8533 -12.1404  -6.0164  -5.1873  -4.2015  -3.6230  -3.4636
    -3.2029  -1.1330

     highest occupied level (ev):    -0.7637

!    total energy              =   -1228.37860382 Ry
     total all-electron energy =    -37944.469034 Ry
     estimated scf accuracy    <          6.7E-09 Ry

     The total energy is the sum of the following terms:
     one-electron contribution =   -2749.54559528 Ry
     hartree contribution      =    1372.35682395 Ry
     xc contribution           =     -73.23503744 Ry
     ewald contribution        =    1014.62638954 Ry
     one-center paw contrib.   =    -792.58118459 Ry

     convergence has been achieved in  24 iterations

     Writing all to output data dir ./work/WSSe.save/

     init_run     :      0.77s CPU      0.81s WALL (       1 calls)
     electrons    :      9.58s CPU      9.95s WALL (       1 calls)

     Called by init_run:
     wfcinit      :      0.08s CPU      0.09s WALL (       1 calls)
     potinit      :      0.16s CPU      0.17s WALL (       1 calls)
     hinit0       :      0.44s CPU      0.44s WALL (       1 calls)

     Called by electrons:
     c_bands      :      3.91s CPU      4.17s WALL (      25 calls)
     sum_band     :      2.50s CPU      2.55s WALL (      25 calls)
     v_of_rho     :      0.15s CPU      0.15s WALL (      25 calls)
     newd         :      1.78s CPU      1.80s WALL (      25 calls)
     PAW_pot      :      1.26s CPU      1.30s WALL (      25 calls)
     mix_rho      :      0.08s CPU      0.08s WALL (      25 calls)

     Called by c_bands:
     init_us_2    :      0.08s CPU      0.09s WALL (     255 calls)
     init_us_2:cp :      0.08s CPU      0.09s WALL (     255 calls)
     cegterg      :      3.68s CPU      3.94s WALL (     125 calls)

     Called by *egterg:
     cdiaghg      :      0.15s CPU      0.16s WALL (     576 calls)
     h_psi        :      2.43s CPU      2.66s WALL (     586 calls)
     s_psi        :      0.31s CPU      0.33s WALL (     586 calls)
     g_psi        :      0.01s CPU      0.01s WALL (     456 calls)

     Called by h_psi:
     h_psi:calbec :      0.32s CPU      0.36s WALL (     586 calls)
     vloc_psi     :      1.79s CPU      1.95s WALL (     586 calls)
     add_vuspsi   :      0.31s CPU      0.33s WALL (     586 calls)

     General routines
     calbec       :      0.44s CPU      0.49s WALL (     711 calls)
     fft          :      0.33s CPU      0.33s WALL (     276 calls)
     ffts         :      0.01s CPU      0.01s WALL (      25 calls)
     fftw         :      1.96s CPU      2.13s WALL (   14046 calls)

     Parallel routines

     PWSCF        :     10.67s CPU     11.11s WALL


   This run was terminated on:  11: 6:58  30Jan2023            

=------------------------------------------------------------------------------=
   JOB DONE.
=------------------------------------------------------------------------------=
