
     Program PWSCF v.7.1 starts on 30Jan2023 at 11: 9:15 

     This program is part of the open-source Quantum ESPRESSO suite
     for quantum simulation of materials; please cite
         "P. Giannozzi et al., J. Phys.:Condens. Matter 21 395502 (2009);
         "P. Giannozzi et al., J. Phys.:Condens. Matter 29 465901 (2017);
         "P. Giannozzi et al., J. Chem. Phys. 152 154105 (2020);
          URL http://www.quantum-espresso.org", 
     in publications or presentations arising from this work. More details at
     http://www.quantum-espresso.org/quote

     Parallel version (MPI), running on    12 processors

     MPI processes distributed on     1 nodes
     122206 MiB available memory on the printing compute node when the environment starts

     Waiting for input...
     Reading input from standard input

     Current dimensions of program PWSCF are:
     Max number of different atomic species (ntypx) = 10
     Max number of k-points (npk) =  40000
     Max angular momentum in pseudopotentials (lmaxx) =  4
     file W.pbe-spn-kjpaw_psl.1.0.0.UPF: wavefunction(s)  6S 5P 5D renormalized
     file S.pbe-n-kjpaw_psl.1.0.0.UPF: wavefunction(s)  3S 3P renormalized
     file Se.pbe-dn-kjpaw_psl.1.0.0.UPF: wavefunction(s)  4S 4P 3D renormalized
     Message from routine setup:
     using ibrav=0 with symmetry is DISCOURAGED, use correct ibrav instead

     R & G space division:  proc/nbgrp/npool/nimage =      12
     Subspace diagonalization in iterative solution of the eigenvalue problem:
     a serial algorithm will be used


     Parallelization info
     --------------------
     sticks:   dense  smooth     PW     G-vecs:    dense   smooth      PW
     Min          49      49     14                 7805     7805    1216
     Max          50      50     15                 7840     7840    1242
     Sum         595     595    169                93827    93827   14755

     Using Slab Decomposition



     bravais-lattice index     =            0
     lattice parameter (alat)  =       6.0471  a.u.
     unit-cell volume          =    1496.1227 (a.u.)^3
     number of atoms/cell      =            3
     number of atomic types    =            3
     number of electrons       =        36.00
     number of Kohn-Sham states=           18
     kinetic-energy cutoff     =      60.0000  Ry
     charge density cutoff     =     240.0000  Ry
     scf convergence threshold =      1.0E-08
     mixing beta               =       0.5000
     number of iterations used =            8  plain     mixing
     Exchange-correlation= SLA  PW   PBX  PBC
                           (   1   4   3   4   0   0   0)

     celldm(1)=   6.047124  celldm(2)=   0.000000  celldm(3)=   0.000000
     celldm(4)=   0.000000  celldm(5)=   0.000000  celldm(6)=   0.000000

     crystal axes: (cart. coord. in units of alat)
               a(1) = (   1.000000   0.000000   0.000000 )  
               a(2) = (  -0.500000   0.866025   0.000000 )  
               a(3) = (   0.000000   0.000000   7.812500 )  

     reciprocal axes: (cart. coord. in units 2 pi/alat)
               b(1) = (  1.000000  0.577350 -0.000000 )  
               b(2) = (  0.000000  1.154701  0.000000 )  
               b(3) = (  0.000000 -0.000000  0.128000 )  


     PseudoPot. # 1 for W  read from file:
     /home/mainadmin/research/danu/pseudo/W.pbe-spn-kjpaw_psl.1.0.0.UPF
     MD5 check sum: 03c3df5b60893f488392c7401945500a
     Pseudo is Projector augmented-wave + core cor, Zval = 14.0
     Generated using &quot;atomic&quot; code by A. Dal Corso  v.6.2.2
     Shape of augmentation charge: PSQ
     Using radial grid of 1273 points,  6 beta functions with: 
                l(1) =   0
                l(2) =   0
                l(3) =   1
                l(4) =   1
                l(5) =   2
                l(6) =   2
     Q(r) pseudized with 0 coefficients 


     PseudoPot. # 2 for S  read from file:
     /home/mainadmin/research/danu/pseudo/S.pbe-n-kjpaw_psl.1.0.0.UPF
     MD5 check sum: fb45dfebcf3e72a4e1bd4a866ec2e262
     Pseudo is Projector augmented-wave + core cor, Zval =  6.0
     Generated using &quot;atomic&quot; code by A. Dal Corso  v.6.3
     Shape of augmentation charge: PSQ
     Using radial grid of 1151 points,  6 beta functions with: 
                l(1) =   0
                l(2) =   0
                l(3) =   1
                l(4) =   1
                l(5) =   2
                l(6) =   2
     Q(r) pseudized with 0 coefficients 


     PseudoPot. # 3 for Se read from file:
     /home/mainadmin/research/danu/pseudo/Se.pbe-dn-kjpaw_psl.1.0.0.UPF
     MD5 check sum: ac240dd2bae32a30e0bf3a38df9c8785
     Pseudo is Projector augmented-wave + core cor, Zval = 16.0
     Generated using &quot;atomic&quot; code by A. Dal Corso  v.6.3
     Shape of augmentation charge: PSQ
     Using radial grid of 1211 points,  6 beta functions with: 
                l(1) =   0
                l(2) =   0
                l(3) =   1
                l(4) =   1
                l(5) =   2
                l(6) =   2
     Q(r) pseudized with 0 coefficients 


     atomic species   valence    mass     pseudopotential
        W             14.00   183.84000     W ( 1.00)
        S              6.00    32.06500     S ( 1.00)
        Se            16.00    78.96000     Se( 1.00)

      6 Sym. Ops. (no inversion) found



   Cartesian axes

     site n.     atom                  positions (alat units)
         1           Se  tau(   1) = (   0.5000000   0.2886751   4.5312500  )
         2           W   tau(   2) = (  -0.0000000   0.5773503   3.9062500  )
         3           S   tau(   3) = (   0.5000000   0.2886751  -4.5312500  )

     number of k points=    21
                       cart. coord. in units 2pi/alat
        k(    1) = (   0.0000000   0.0000000   0.0000000), wk =   0.0118343
        k(    2) = (   0.0000000   0.0888231   0.0000000), wk =   0.0710059
        k(    3) = (   0.0000000   0.1776462   0.0000000), wk =   0.0710059
        k(    4) = (   0.0000000   0.2664694   0.0000000), wk =   0.0710059
        k(    5) = (   0.0000000   0.3552925   0.0000000), wk =   0.0710059
        k(    6) = (   0.0000000   0.4441156   0.0000000), wk =   0.0710059
        k(    7) = (   0.0000000   0.5329387   0.0000000), wk =   0.0710059
        k(    8) = (   0.0769231   0.1332347   0.0000000), wk =   0.0710059
        k(    9) = (   0.0769231   0.2220578   0.0000000), wk =   0.1420118
        k(   10) = (   0.0769231   0.3108809   0.0000000), wk =   0.1420118
        k(   11) = (   0.0769231   0.3997040   0.0000000), wk =   0.1420118
        k(   12) = (   0.0769231   0.4885272   0.0000000), wk =   0.1420118
        k(   13) = (   0.0769231   0.5773503   0.0000000), wk =   0.0710059
        k(   14) = (   0.1538462   0.2664694   0.0000000), wk =   0.0710059
        k(   15) = (   0.1538462   0.3552925   0.0000000), wk =   0.1420118
        k(   16) = (   0.1538462   0.4441156   0.0000000), wk =   0.1420118
        k(   17) = (   0.1538462   0.5329387   0.0000000), wk =   0.1420118
        k(   18) = (   0.2307692   0.3997040   0.0000000), wk =   0.0710059
        k(   19) = (   0.2307692   0.4885272   0.0000000), wk =   0.1420118
        k(   20) = (   0.2307692   0.5773503   0.0000000), wk =   0.0710059
        k(   21) = (   0.3076923   0.5329387   0.0000000), wk =   0.0710059

     Dense  grid:    93827 G-vectors     FFT dimensions: (  30,  30, 240)

     Estimated max dynamical RAM per process >      37.75 MB

     Estimated total dynamical RAM >     452.95 MB

     Check: negative core charge=   -0.000001

     Initial potential from superposition of free atoms

     starting charge      35.9993, renormalised to      36.0000

     negative rho (up, down):  5.774E-04 0.000E+00
     Starting wfcs are   26 randomized atomic wfcs
     Checking if some PAW data can be deallocated... 

     total cpu time spent up to now is        1.6 secs

     Self-consistent Calculation

     iteration #  1     ecut=    60.00 Ry     beta= 0.50
     Davidson diagonalization with overlap
     ethr =  1.00E-02,  avg # of iterations =  2.0

     Threshold (ethr) on eigenvalues was too large:
     Diagonalizing with lowered threshold

     Davidson diagonalization with overlap
     ethr =  4.63E-04,  avg # of iterations =  2.2

     negative rho (up, down):  1.098E-03 0.000E+00

     total cpu time spent up to now is        3.6 secs

     total energy              =   -1228.30590526 Ry
     estimated scf accuracy    <       0.16866309 Ry

     iteration #  2     ecut=    60.00 Ry     beta= 0.50
     Davidson diagonalization with overlap
     ethr =  4.69E-04,  avg # of iterations =  8.2

     negative rho (up, down):  1.400E-03 0.000E+00

     total cpu time spent up to now is        4.9 secs

     total energy              =   -1228.07227028 Ry
     estimated scf accuracy    <       4.17873230 Ry

     iteration #  3     ecut=    60.00 Ry     beta= 0.50
     Davidson diagonalization with overlap
     ethr =  4.69E-04,  avg # of iterations =  7.7

     negative rho (up, down):  4.253E-03 0.000E+00

     total cpu time spent up to now is        6.2 secs

     total energy              =   -1228.37216732 Ry
     estimated scf accuracy    <       0.05254141 Ry

     iteration #  4     ecut=    60.00 Ry     beta= 0.50
     Davidson diagonalization with overlap
     ethr =  1.46E-04,  avg # of iterations =  4.5

     negative rho (up, down):  7.822E-03 0.000E+00

     total cpu time spent up to now is        7.3 secs

     total energy              =   -1228.37555147 Ry
     estimated scf accuracy    <       0.09319681 Ry

     iteration #  5     ecut=    60.00 Ry     beta= 0.50
     Davidson diagonalization with overlap
     ethr =  1.46E-04,  avg # of iterations =  3.5

     negative rho (up, down):  1.543E-02 0.000E+00

     total cpu time spent up to now is        8.3 secs

     total energy              =   -1228.38550481 Ry
     estimated scf accuracy    <       0.01632293 Ry

     iteration #  6     ecut=    60.00 Ry     beta= 0.50
     Davidson diagonalization with overlap
     ethr =  4.53E-05,  avg # of iterations =  4.1

     negative rho (up, down):  4.054E-03 0.000E+00

     total cpu time spent up to now is        9.3 secs

     total energy              =   -1228.36985772 Ry
     estimated scf accuracy    <       0.01683270 Ry

     iteration #  7     ecut=    60.00 Ry     beta= 0.50
     Davidson diagonalization with overlap
     ethr =  4.53E-05,  avg # of iterations =  5.2

     negative rho (up, down):  7.103E-03 0.000E+00

     total cpu time spent up to now is       10.4 secs

     total energy              =   -1228.38222284 Ry
     estimated scf accuracy    <       0.03729325 Ry

     iteration #  8     ecut=    60.00 Ry     beta= 0.50
     Davidson diagonalization with overlap
     ethr =  4.53E-05,  avg # of iterations =  2.0

     negative rho (up, down):  1.794E-03 0.000E+00

     total cpu time spent up to now is       11.4 secs

     total energy              =   -1228.37721610 Ry
     estimated scf accuracy    <       0.02869625 Ry

     iteration #  9     ecut=    60.00 Ry     beta= 0.50
     Davidson diagonalization with overlap
     ethr =  4.53E-05,  avg # of iterations =  2.4

     negative rho (up, down):  8.243E-04 0.000E+00

     total cpu time spent up to now is       12.3 secs

     total energy              =   -1228.37771932 Ry
     estimated scf accuracy    <       0.01128048 Ry

     iteration # 10     ecut=    60.00 Ry     beta= 0.50
     Davidson diagonalization with overlap
     ethr =  3.13E-05,  avg # of iterations =  3.6

     negative rho (up, down):  7.533E-04 0.000E+00

     total cpu time spent up to now is       13.3 secs

     total energy              =   -1228.37908797 Ry
     estimated scf accuracy    <       0.00058127 Ry

     iteration # 11     ecut=    60.00 Ry     beta= 0.50
     Davidson diagonalization with overlap
     ethr =  1.61E-06,  avg # of iterations =  5.5

     negative rho (up, down):  7.592E-04 0.000E+00

     total cpu time spent up to now is       14.5 secs

     total energy              =   -1228.37913145 Ry
     estimated scf accuracy    <       0.00093411 Ry

     iteration # 12     ecut=    60.00 Ry     beta= 0.50
     Davidson diagonalization with overlap
     ethr =  1.61E-06,  avg # of iterations =  4.4

     negative rho (up, down):  7.487E-04 0.000E+00

     total cpu time spent up to now is       15.5 secs

     total energy              =   -1228.37927090 Ry
     estimated scf accuracy    <       0.00010450 Ry

     iteration # 13     ecut=    60.00 Ry     beta= 0.50
     Davidson diagonalization with overlap
     ethr =  2.90E-07,  avg # of iterations =  2.7

     negative rho (up, down):  7.435E-04 0.000E+00

     total cpu time spent up to now is       16.5 secs

     total energy              =   -1228.37926753 Ry
     estimated scf accuracy    <       0.00003075 Ry

     iteration # 14     ecut=    60.00 Ry     beta= 0.50
     Davidson diagonalization with overlap
     ethr =  8.54E-08,  avg # of iterations =  5.2

     negative rho (up, down):  7.462E-04 0.000E+00

     total cpu time spent up to now is       17.6 secs

     total energy              =   -1228.37927545 Ry
     estimated scf accuracy    <       0.00005837 Ry

     iteration # 15     ecut=    60.00 Ry     beta= 0.50
     Davidson diagonalization with overlap
     ethr =  8.54E-08,  avg # of iterations =  2.7

     negative rho (up, down):  7.466E-04 0.000E+00

     total cpu time spent up to now is       18.5 secs

     total energy              =   -1228.37927708 Ry
     estimated scf accuracy    <       0.00001113 Ry

     iteration # 16     ecut=    60.00 Ry     beta= 0.50
     Davidson diagonalization with overlap
     ethr =  3.09E-08,  avg # of iterations =  4.2

     negative rho (up, down):  7.476E-04 0.000E+00

     total cpu time spent up to now is       19.5 secs

     total energy              =   -1228.37927829 Ry
     estimated scf accuracy    <       0.00000023 Ry

     iteration # 17     ecut=    60.00 Ry     beta= 0.50
     Davidson diagonalization with overlap
     ethr =  6.51E-10,  avg # of iterations =  9.0

     negative rho (up, down):  7.476E-04 0.000E+00

     total cpu time spent up to now is       21.0 secs

     total energy              =   -1228.37927880 Ry
     estimated scf accuracy    <       0.00000255 Ry

     iteration # 18     ecut=    60.00 Ry     beta= 0.50
     Davidson diagonalization with overlap
     ethr =  6.51E-10,  avg # of iterations =  1.0

     negative rho (up, down):  7.467E-04 0.000E+00

     total cpu time spent up to now is       21.8 secs

     total energy              =   -1228.37927899 Ry
     estimated scf accuracy    <       0.00000245 Ry

     iteration # 19     ecut=    60.00 Ry     beta= 0.50
     Davidson diagonalization with overlap
     ethr =  6.51E-10,  avg # of iterations =  3.5

     negative rho (up, down):  7.461E-04 0.000E+00

     total cpu time spent up to now is       22.8 secs

     total energy              =   -1228.37927883 Ry
     estimated scf accuracy    <       0.00000415 Ry

     iteration # 20     ecut=    60.00 Ry     beta= 0.50
     Davidson diagonalization with overlap
     ethr =  6.51E-10,  avg # of iterations =  2.3

     negative rho (up, down):  7.488E-04 0.000E+00

     total cpu time spent up to now is       23.7 secs

     total energy              =   -1228.37927885 Ry
     estimated scf accuracy    <       0.00000323 Ry

     iteration # 21     ecut=    60.00 Ry     beta= 0.50
     Davidson diagonalization with overlap
     ethr =  6.51E-10,  avg # of iterations =  2.0

     negative rho (up, down):  7.470E-04 0.000E+00

     total cpu time spent up to now is       24.6 secs

     total energy              =   -1228.37927930 Ry
     estimated scf accuracy    <       0.00000318 Ry

     iteration # 22     ecut=    60.00 Ry     beta= 0.50
     Davidson diagonalization with overlap
     ethr =  6.51E-10,  avg # of iterations =  5.4

     negative rho (up, down):  7.478E-04 0.000E+00

     total cpu time spent up to now is       25.7 secs

     total energy              =   -1228.37927966 Ry
     estimated scf accuracy    <       0.00000880 Ry

     iteration # 23     ecut=    60.00 Ry     beta= 0.50
     Davidson diagonalization with overlap
     ethr =  6.51E-10,  avg # of iterations =  3.0

     negative rho (up, down):  7.476E-04 0.000E+00

     total cpu time spent up to now is       26.7 secs

     total energy              =   -1228.37927977 Ry
     estimated scf accuracy    <       0.00001097 Ry

     iteration # 24     ecut=    60.00 Ry     beta= 0.50
     Davidson diagonalization with overlap
     ethr =  6.51E-10,  avg # of iterations =  1.4

     negative rho (up, down):  7.483E-04 0.000E+00

     total cpu time spent up to now is       27.6 secs

     total energy              =   -1228.37928010 Ry
     estimated scf accuracy    <       0.00001181 Ry

     iteration # 25     ecut=    60.00 Ry     beta= 0.50
     Davidson diagonalization with overlap
     ethr =  6.51E-10,  avg # of iterations =  5.0

     negative rho (up, down):  7.469E-04 0.000E+00

     total cpu time spent up to now is       28.7 secs

     total energy              =   -1228.37927799 Ry
     estimated scf accuracy    <       0.00001644 Ry

     iteration # 26     ecut=    60.00 Ry     beta= 0.50
     Davidson diagonalization with overlap
     ethr =  6.51E-10,  avg # of iterations =  7.6

     negative rho (up, down):  7.463E-04 0.000E+00

     total cpu time spent up to now is       30.1 secs

     total energy              =   -1228.37927860 Ry
     estimated scf accuracy    <       0.00000149 Ry

     iteration # 27     ecut=    60.00 Ry     beta= 0.50
     Davidson diagonalization with overlap
     ethr =  6.51E-10,  avg # of iterations =  4.4

     negative rho (up, down):  7.468E-04 0.000E+00

     total cpu time spent up to now is       31.1 secs

     total energy              =   -1228.37927847 Ry
     estimated scf accuracy    <       0.00000096 Ry

     iteration # 28     ecut=    60.00 Ry     beta= 0.50
     Davidson diagonalization with overlap
     ethr =  6.51E-10,  avg # of iterations =  5.3

     negative rho (up, down):  7.469E-04 0.000E+00

     total cpu time spent up to now is       32.3 secs

     total energy              =   -1228.37927858 Ry
     estimated scf accuracy    <       0.00000006 Ry

     iteration # 29     ecut=    60.00 Ry     beta= 0.50
     Davidson diagonalization with overlap
     ethr =  1.53E-10,  avg # of iterations =  2.7

     negative rho (up, down):  7.471E-04 0.000E+00

     total cpu time spent up to now is       33.2 secs

     total energy              =   -1228.37927858 Ry
     estimated scf accuracy    <       0.00000002 Ry

     iteration # 30     ecut=    60.00 Ry     beta= 0.50
     Davidson diagonalization with overlap
     ethr =  5.53E-11,  avg # of iterations =  4.1

     negative rho (up, down):  7.488E-04 0.000E+00

     total cpu time spent up to now is       34.2 secs

     End of self-consistent calculation

          k = 0.0000 0.0000 0.0000 ( 11811 PWs)   bands (ev):

   -75.2382 -48.4208 -48.4208 -48.4174 -48.4160 -48.4160 -39.4089 -39.1504
   -39.1504 -14.9933 -13.8031  -6.8568  -3.7196  -2.1970  -1.8502  -1.8502
    -0.7804  -0.7804

          k = 0.0000 0.0888 0.0000 ( 11797 PWs)   bands (ev):

   -75.2374 -48.4208 -48.4205 -48.4172 -48.4161 -48.4160 -39.4065 -39.1659
   -39.1541 -14.9090 -13.7380  -6.7249  -3.7392  -2.1504  -2.1072  -1.7553
    -0.9986  -0.9297

          k = 0.0000 0.1776 0.0000 ( 11791 PWs)   bands (ev):

   -75.2352 -48.4210 -48.4196 -48.4167 -48.4163 -48.4160 -39.3999 -39.2086
   -39.1644 -14.6645 -13.5490  -6.3517  -3.8087  -2.8081  -2.0367  -1.6608
    -1.5007  -1.2863

          k = 0.0000 0.2665 0.0000 ( 11769 PWs)   bands (ev):

   -75.2322 -48.4211 -48.4185 -48.4169 -48.4159 -48.4157 -39.3907 -39.2684
   -39.1790 -14.2857 -13.2568  -5.8205  -4.0201  -3.7043  -2.5591  -2.0194
    -1.7019  -1.1871

          k = 0.0000 0.3553 0.0000 ( 11769 PWs)   bands (ev):

   -75.2289 -48.4214 -48.4177 -48.4174 -48.4154 -48.4148 -39.3809 -39.3312
   -39.1944 -13.8248 -12.9027  -5.4039  -4.7539  -4.2690  -3.1939  -2.1570
    -2.0726  -0.9811

          k = 0.0000 0.4441 0.0000 ( 11767 PWs)   bands (ev):

   -75.2262 -48.4217 -48.4178 -48.4174 -48.4146 -48.4139 -39.3829 -39.3726
   -39.2072 -13.3760 -12.5581  -5.9365  -5.0967  -4.5104  -3.4277  -2.3436
    -2.1529  -0.9385

          k = 0.0000 0.5329 0.0000 ( 11696 PWs)   bands (ev):

   -75.2246 -48.4218 -48.4181 -48.4173 -48.4140 -48.4133 -39.4117 -39.3681
   -39.2143 -13.0840 -12.3321  -6.4688  -5.4414  -4.4408  -3.4954  -2.4855
    -2.0000  -0.9575

          k = 0.0769 0.1332 0.0000 ( 11791 PWs)   bands (ev):

   -75.2359 -48.4208 -48.4199 -48.4169 -48.4163 -48.4160 -39.4020 -39.1943
   -39.1618 -14.7446 -13.6108  -6.4713  -3.7802  -2.5830  -2.0601  -1.5915
    -1.4761  -1.1504

          k = 0.0769 0.2221 0.0000 ( 11801 PWs)   bands (ev):

   -75.2333 -48.4209 -48.4191 -48.4167 -48.4163 -48.4158 -39.3941 -39.2438
   -39.1760 -14.4323 -13.3697  -6.0091  -3.8784  -3.3648  -2.3077  -2.0013
    -1.5137  -1.3459

          k = 0.0769 0.3109 0.0000 ( 11779 PWs)   bands (ev):

   -75.2301 -48.4210 -48.4181 -48.4172 -48.4160 -48.4150 -39.3846 -39.3029
   -39.1932 -14.0099 -13.0443  -5.4683  -4.3693  -4.0268  -3.1077  -2.1463
    -1.9222  -1.1358

          k = 0.0769 0.3997 0.0000 ( 11765 PWs)   bands (ev):

   -75.2271 -48.4213 -48.4177 -48.4175 -48.4153 -48.4141 -39.3757 -39.3579
   -39.2094 -13.5479 -12.6892  -5.5083  -4.8863  -4.4592  -3.4533  -2.3646
    -2.2348  -1.0951

          k = 0.0769 0.4885 0.0000 ( 11704 PWs)   bands (ev):

   -75.2250 -48.4214 -48.4179 -48.4174 -48.4144 -48.4135 -39.3968 -39.3692
   -39.2208 -13.1655 -12.3940  -6.1835  -5.2446  -4.4290  -3.5061  -2.6102
    -2.2176  -1.1310

          k = 0.0769 0.5774 0.0000 ( 11668 PWs)   bands (ev):

   -75.2243 -48.4214 -48.4180 -48.4173 -48.4140 -48.4133 -39.4107 -39.3669
   -39.2249 -13.0123 -12.2744  -6.4621  -5.4407  -4.3841  -3.5010  -2.7151
    -2.1475  -1.1391

          k = 0.1538 0.2665 0.0000 ( 11785 PWs)   bands (ev):

   -75.2306 -48.4207 -48.4185 -48.4170 -48.4163 -48.4149 -39.3860 -39.2895
   -39.1960 -14.0745 -13.0936  -5.5030  -4.1345  -3.9206  -3.1511  -2.1593
    -1.8436  -1.2399

          k = 0.1538 0.3553 0.0000 ( 11756 PWs)   bands (ev):

   -75.2277 -48.4206 -48.4180 -48.4173 -48.4161 -48.4141 -39.3773 -39.3358
   -39.2189 -13.6436 -12.7612  -5.0805  -4.8047  -4.2021  -3.7289  -2.5208
    -2.2517  -1.2535

          k = 0.1538 0.4441 0.0000 ( 11724 PWs)   bands (ev):

   -75.2253 -48.4206 -48.4177 -48.4175 -48.4154 -48.4135 -39.3735 -39.3698
   -39.2386 -13.2303 -12.4413  -5.7075  -4.8967  -4.4174  -3.7188  -2.8579
    -2.6157  -1.2946

          k = 0.1538 0.5329 0.0000 ( 11682 PWs)   bands (ev):

   -75.2239 -48.4206 -48.4177 -48.4176 -48.4146 -48.4134 -39.3941 -39.3659
   -39.2499 -12.9658 -12.2342  -6.1664  -5.2513  -4.2855  -3.5667  -3.1458
    -2.7673  -1.2359

          k = 0.2308 0.3997 0.0000 ( 11717 PWs)   bands (ev):

   -75.2254 -48.4200 -48.4180 -48.4173 -48.4160 -48.4135 -39.3704 -39.3596
   -39.2501 -13.2549 -12.4589  -5.3919  -4.6109  -4.4806  -3.9873  -3.0803
    -2.6978  -1.3186

          k = 0.2308 0.4885 0.0000 ( 11705 PWs)   bands (ev):

   -75.2237 -48.4197 -48.4180 -48.4172 -48.4155 -48.4135 -39.3720 -39.3653
   -39.2769 -12.9451 -12.2149  -5.7392  -4.9978  -4.2427  -3.9266  -3.5042
    -3.1401  -1.1880

          k = 0.2308 0.5774 0.0000 ( 11670 PWs)   bands (ev):

   -75.2232 -48.4196 -48.4180 -48.4172 -48.4151 -48.4136 -39.3750 -39.3636
   -39.2879 -12.8246 -12.1188  -5.8776  -5.1508  -4.2139  -3.8089  -3.5967
    -3.4014  -1.0779

          k = 0.3077 0.5329 0.0000 ( 11664 PWs)   bands (ev):

   -75.2229 -48.4190 -48.4183 -48.4165 -48.4157 -48.4138 -39.3628 -39.3550
   -39.3148 -12.7740 -12.0769  -5.5581  -5.1711  -4.3112  -4.0230  -3.8406
    -3.4637  -0.9613

     highest occupied level (ev):    -0.7804

!    total energy              =   -1228.37927859 Ry
     total all-electron energy =    -37944.469709 Ry
     estimated scf accuracy    <          2.1E-09 Ry

     The total energy is the sum of the following terms:
     one-electron contribution =   -2749.50494234 Ry
     hartree contribution      =    1372.31312149 Ry
     xc contribution           =     -73.23285176 Ry
     ewald contribution        =    1014.62638954 Ry
     one-center paw contrib.   =    -792.58099552 Ry

     convergence has been achieved in  30 iterations

     Writing all to output data dir ./work/WSSe.save/

     init_run     :      1.08s CPU      1.16s WALL (       1 calls)
     electrons    :     30.87s CPU     32.63s WALL (       1 calls)

     Called by init_run:
     wfcinit      :      0.32s CPU      0.36s WALL (       1 calls)
     potinit      :      0.16s CPU      0.17s WALL (       1 calls)
     hinit0       :      0.49s CPU      0.49s WALL (       1 calls)

     Called by electrons:
     c_bands      :     21.81s CPU     23.23s WALL (      31 calls)
     sum_band     :      5.08s CPU      5.34s WALL (      31 calls)
     v_of_rho     :      0.18s CPU      0.19s WALL (      31 calls)
     newd         :      2.20s CPU      2.22s WALL (      31 calls)
     PAW_pot      :      1.58s CPU      1.65s WALL (      31 calls)
     mix_rho      :      0.10s CPU      0.10s WALL (      31 calls)

     Called by c_bands:
     init_us_2    :      0.37s CPU      0.40s WALL (    1323 calls)
     init_us_2:cp :      0.37s CPU      0.40s WALL (    1323 calls)
     cegterg      :     20.75s CPU     22.15s WALL (     651 calls)

     Called by *egterg:
     cdiaghg      :      0.85s CPU      0.88s WALL (    3291 calls)
     h_psi        :     13.42s CPU     14.61s WALL (    3333 calls)
     s_psi        :      1.72s CPU      1.81s WALL (    3333 calls)
     g_psi        :      0.07s CPU      0.07s WALL (    2661 calls)

     Called by h_psi:
     h_psi:calbec :      1.81s CPU      2.00s WALL (    3333 calls)
     vloc_psi     :      9.86s CPU     10.75s WALL (    3333 calls)
     add_vuspsi   :      1.70s CPU      1.82s WALL (    3333 calls)

     General routines
     calbec       :      2.43s CPU      2.68s WALL (    3984 calls)
     fft          :      0.35s CPU      0.36s WALL (     342 calls)
     ffts         :      0.01s CPU      0.01s WALL (      31 calls)
     fftw         :     10.72s CPU     11.69s WALL (   75842 calls)

     Parallel routines

     PWSCF        :     32.37s CPU     34.27s WALL


   This run was terminated on:  11: 9:50  30Jan2023            

=------------------------------------------------------------------------------=
   JOB DONE.
=------------------------------------------------------------------------------=
