
     Program PWSCF v.7.1 starts on 30Jan2023 at 11:13:17 

     This program is part of the open-source Quantum ESPRESSO suite
     for quantum simulation of materials; please cite
         "P. Giannozzi et al., J. Phys.:Condens. Matter 21 395502 (2009);
         "P. Giannozzi et al., J. Phys.:Condens. Matter 29 465901 (2017);
         "P. Giannozzi et al., J. Chem. Phys. 152 154105 (2020);
          URL http://www.quantum-espresso.org", 
     in publications or presentations arising from this work. More details at
     http://www.quantum-espresso.org/quote

     Parallel version (MPI), running on    12 processors

     MPI processes distributed on     1 nodes
     122153 MiB available memory on the printing compute node when the environment starts

     Waiting for input...
     Reading input from standard input

     Current dimensions of program PWSCF are:
     Max number of different atomic species (ntypx) = 10
     Max number of k-points (npk) =  40000
     Max angular momentum in pseudopotentials (lmaxx) =  4
     file W.pbe-spn-kjpaw_psl.1.0.0.UPF: wavefunction(s)  6S 5P 5D renormalized
     file S.pbe-n-kjpaw_psl.1.0.0.UPF: wavefunction(s)  3S 3P renormalized
     file Se.pbe-dn-kjpaw_psl.1.0.0.UPF: wavefunction(s)  4S 4P 3D renormalized
     Message from routine setup:
     using ibrav=0 with symmetry is DISCOURAGED, use correct ibrav instead

     R & G space division:  proc/nbgrp/npool/nimage =      12
     Subspace diagonalization in iterative solution of the eigenvalue problem:
     a serial algorithm will be used


     Parallelization info
     --------------------
     sticks:   dense  smooth     PW     G-vecs:    dense   smooth      PW
     Min          49      49     14                 7805     7805    1237
     Max          50      50     18                 7840     7840    1244
     Sum         595     595    187                93827    93827   14881

     Using Slab Decomposition



     bravais-lattice index     =            0
     lattice parameter (alat)  =       6.0471  a.u.
     unit-cell volume          =    1496.1227 (a.u.)^3
     number of atoms/cell      =            3
     number of atomic types    =            3
     number of electrons       =        36.00
     number of Kohn-Sham states=           18
     kinetic-energy cutoff     =      60.0000  Ry
     charge density cutoff     =     240.0000  Ry
     scf convergence threshold =      1.0E-08
     mixing beta               =       0.5000
     number of iterations used =            8  plain     mixing
     Exchange-correlation= SLA  PW   PBX  PBC
                           (   1   4   3   4   0   0   0)

     celldm(1)=   6.047124  celldm(2)=   0.000000  celldm(3)=   0.000000
     celldm(4)=   0.000000  celldm(5)=   0.000000  celldm(6)=   0.000000

     crystal axes: (cart. coord. in units of alat)
               a(1) = (   1.000000   0.000000   0.000000 )  
               a(2) = (  -0.500000   0.866025   0.000000 )  
               a(3) = (   0.000000   0.000000   7.812500 )  

     reciprocal axes: (cart. coord. in units 2 pi/alat)
               b(1) = (  1.000000  0.577350 -0.000000 )  
               b(2) = (  0.000000  1.154701  0.000000 )  
               b(3) = (  0.000000 -0.000000  0.128000 )  


     PseudoPot. # 1 for W  read from file:
     /home/mainadmin/research/danu/pseudo/W.pbe-spn-kjpaw_psl.1.0.0.UPF
     MD5 check sum: 03c3df5b60893f488392c7401945500a
     Pseudo is Projector augmented-wave + core cor, Zval = 14.0
     Generated using &quot;atomic&quot; code by A. Dal Corso  v.6.2.2
     Shape of augmentation charge: PSQ
     Using radial grid of 1273 points,  6 beta functions with: 
                l(1) =   0
                l(2) =   0
                l(3) =   1
                l(4) =   1
                l(5) =   2
                l(6) =   2
     Q(r) pseudized with 0 coefficients 


     PseudoPot. # 2 for S  read from file:
     /home/mainadmin/research/danu/pseudo/S.pbe-n-kjpaw_psl.1.0.0.UPF
     MD5 check sum: fb45dfebcf3e72a4e1bd4a866ec2e262
     Pseudo is Projector augmented-wave + core cor, Zval =  6.0
     Generated using &quot;atomic&quot; code by A. Dal Corso  v.6.3
     Shape of augmentation charge: PSQ
     Using radial grid of 1151 points,  6 beta functions with: 
                l(1) =   0
                l(2) =   0
                l(3) =   1
                l(4) =   1
                l(5) =   2
                l(6) =   2
     Q(r) pseudized with 0 coefficients 


     PseudoPot. # 3 for Se read from file:
     /home/mainadmin/research/danu/pseudo/Se.pbe-dn-kjpaw_psl.1.0.0.UPF
     MD5 check sum: ac240dd2bae32a30e0bf3a38df9c8785
     Pseudo is Projector augmented-wave + core cor, Zval = 16.0
     Generated using &quot;atomic&quot; code by A. Dal Corso  v.6.3
     Shape of augmentation charge: PSQ
     Using radial grid of 1211 points,  6 beta functions with: 
                l(1) =   0
                l(2) =   0
                l(3) =   1
                l(4) =   1
                l(5) =   2
                l(6) =   2
     Q(r) pseudized with 0 coefficients 


     atomic species   valence    mass     pseudopotential
        W             14.00   183.84000     W ( 1.00)
        S              6.00    32.06500     S ( 1.00)
        Se            16.00    78.96000     Se( 1.00)

      6 Sym. Ops. (no inversion) found



   Cartesian axes

     site n.     atom                  positions (alat units)
         1           Se  tau(   1) = (   0.5000000   0.2886751   4.5312500  )
         2           W   tau(   2) = (  -0.0000000   0.5773503   3.9062500  )
         3           S   tau(   3) = (   0.5000000   0.2886751  -4.5312500  )

     number of k points=    40
                       cart. coord. in units 2pi/alat
        k(    1) = (   0.0000000   0.0000000   0.0000000), wk =   0.0055402
        k(    2) = (   0.0000000   0.0607737   0.0000000), wk =   0.0332410
        k(    3) = (   0.0000000   0.1215474   0.0000000), wk =   0.0332410
        k(    4) = (   0.0000000   0.1823211   0.0000000), wk =   0.0332410
        k(    5) = (   0.0000000   0.2430949   0.0000000), wk =   0.0332410
        k(    6) = (   0.0000000   0.3038686   0.0000000), wk =   0.0332410
        k(    7) = (   0.0000000   0.3646423   0.0000000), wk =   0.0332410
        k(    8) = (   0.0000000   0.4254160   0.0000000), wk =   0.0332410
        k(    9) = (   0.0000000   0.4861897   0.0000000), wk =   0.0332410
        k(   10) = (   0.0000000   0.5469634   0.0000000), wk =   0.0332410
        k(   11) = (   0.0526316   0.0911606   0.0000000), wk =   0.0332410
        k(   12) = (   0.0526316   0.1519343   0.0000000), wk =   0.0664820
        k(   13) = (   0.0526316   0.2127080   0.0000000), wk =   0.0664820
        k(   14) = (   0.0526316   0.2734817   0.0000000), wk =   0.0664820
        k(   15) = (   0.0526316   0.3342554   0.0000000), wk =   0.0664820
        k(   16) = (   0.0526316   0.3950291   0.0000000), wk =   0.0664820
        k(   17) = (   0.0526316   0.4558028   0.0000000), wk =   0.0664820
        k(   18) = (   0.0526316   0.5165766   0.0000000), wk =   0.0664820
        k(   19) = (   0.0526316   0.5773503   0.0000000), wk =   0.0332410
        k(   20) = (   0.1052632   0.1823211   0.0000000), wk =   0.0332410
        k(   21) = (   0.1052632   0.2430949   0.0000000), wk =   0.0664820
        k(   22) = (   0.1052632   0.3038686   0.0000000), wk =   0.0664820
        k(   23) = (   0.1052632   0.3646423   0.0000000), wk =   0.0664820
        k(   24) = (   0.1052632   0.4254160   0.0000000), wk =   0.0664820
        k(   25) = (   0.1052632   0.4861897   0.0000000), wk =   0.0664820
        k(   26) = (   0.1052632   0.5469634   0.0000000), wk =   0.0664820
        k(   27) = (   0.1578947   0.2734817   0.0000000), wk =   0.0332410
        k(   28) = (   0.1578947   0.3342554   0.0000000), wk =   0.0664820
        k(   29) = (   0.1578947   0.3950291   0.0000000), wk =   0.0664820
        k(   30) = (   0.1578947   0.4558028   0.0000000), wk =   0.0664820
        k(   31) = (   0.1578947   0.5165766   0.0000000), wk =   0.0664820
        k(   32) = (   0.1578947   0.5773503   0.0000000), wk =   0.0332410
        k(   33) = (   0.2105263   0.3646423   0.0000000), wk =   0.0332410
        k(   34) = (   0.2105263   0.4254160   0.0000000), wk =   0.0664820
        k(   35) = (   0.2105263   0.4861897   0.0000000), wk =   0.0664820
        k(   36) = (   0.2105263   0.5469634   0.0000000), wk =   0.0664820
        k(   37) = (   0.2631579   0.4558028   0.0000000), wk =   0.0332410
        k(   38) = (   0.2631579   0.5165766   0.0000000), wk =   0.0664820
        k(   39) = (   0.2631579   0.5773503   0.0000000), wk =   0.0332410
        k(   40) = (   0.3157895   0.5469634   0.0000000), wk =   0.0332410

     Dense  grid:    93827 G-vectors     FFT dimensions: (  30,  30, 240)

     Estimated max dynamical RAM per process >      42.90 MB

     Estimated total dynamical RAM >     514.76 MB

     Check: negative core charge=   -0.000001

     Initial potential from superposition of free atoms

     starting charge      35.9993, renormalised to      36.0000

     negative rho (up, down):  5.774E-04 0.000E+00
     Starting wfcs are   26 randomized atomic wfcs
     Checking if some PAW data can be deallocated... 

     total cpu time spent up to now is        1.8 secs

     Self-consistent Calculation

     iteration #  1     ecut=    60.00 Ry     beta= 0.50
     Davidson diagonalization with overlap
     ethr =  1.00E-02,  avg # of iterations =  2.0

     Threshold (ethr) on eigenvalues was too large:
     Diagonalizing with lowered threshold

     Davidson diagonalization with overlap
     ethr =  4.60E-04,  avg # of iterations =  2.0

     negative rho (up, down):  1.139E-03 0.000E+00

     total cpu time spent up to now is        4.9 secs

     total energy              =   -1228.30595988 Ry
     estimated scf accuracy    <       0.16842505 Ry

     iteration #  2     ecut=    60.00 Ry     beta= 0.50
     Davidson diagonalization with overlap
     ethr =  4.68E-04,  avg # of iterations =  8.3

     negative rho (up, down):  1.460E-03 0.000E+00

     total cpu time spent up to now is        7.3 secs

     total energy              =   -1228.07519073 Ry
     estimated scf accuracy    <       4.14424429 Ry

     iteration #  3     ecut=    60.00 Ry     beta= 0.50
     Davidson diagonalization with overlap
     ethr =  4.68E-04,  avg # of iterations =  7.6

     negative rho (up, down):  4.460E-03 0.000E+00

     total cpu time spent up to now is        9.7 secs

     total energy              =   -1228.37232552 Ry
     estimated scf accuracy    <       0.04871879 Ry

     iteration #  4     ecut=    60.00 Ry     beta= 0.50
     Davidson diagonalization with overlap
     ethr =  1.35E-04,  avg # of iterations =  4.6

     negative rho (up, down):  8.226E-03 0.000E+00

     total cpu time spent up to now is       11.6 secs

     total energy              =   -1228.37555007 Ry
     estimated scf accuracy    <       0.09806598 Ry

     iteration #  5     ecut=    60.00 Ry     beta= 0.50
     Davidson diagonalization with overlap
     ethr =  1.35E-04,  avg # of iterations =  3.6

     negative rho (up, down):  1.526E-02 0.000E+00

     total cpu time spent up to now is       13.3 secs

     total energy              =   -1228.38599948 Ry
     estimated scf accuracy    <       0.01717371 Ry

     iteration #  6     ecut=    60.00 Ry     beta= 0.50
     Davidson diagonalization with overlap
     ethr =  4.77E-05,  avg # of iterations =  3.3

     negative rho (up, down):  3.962E-03 0.000E+00

     total cpu time spent up to now is       15.0 secs

     total energy              =   -1228.36946570 Ry
     estimated scf accuracy    <       0.01826008 Ry

     iteration #  7     ecut=    60.00 Ry     beta= 0.50
     Davidson diagonalization with overlap
     ethr =  4.77E-05,  avg # of iterations =  5.0

     negative rho (up, down):  7.034E-03 0.000E+00

     total cpu time spent up to now is       17.0 secs

     total energy              =   -1228.38171801 Ry
     estimated scf accuracy    <       0.02769267 Ry

     iteration #  8     ecut=    60.00 Ry     beta= 0.50
     Davidson diagonalization with overlap
     ethr =  4.77E-05,  avg # of iterations =  2.0

     negative rho (up, down):  1.803E-03 0.000E+00

     total cpu time spent up to now is       18.6 secs

     total energy              =   -1228.37766354 Ry
     estimated scf accuracy    <       0.02175908 Ry

     iteration #  9     ecut=    60.00 Ry     beta= 0.50
     Davidson diagonalization with overlap
     ethr =  4.77E-05,  avg # of iterations =  2.0

     negative rho (up, down):  8.307E-04 0.000E+00

     total cpu time spent up to now is       20.3 secs

     total energy              =   -1228.37780896 Ry
     estimated scf accuracy    <       0.01005548 Ry

     iteration # 10     ecut=    60.00 Ry     beta= 0.50
     Davidson diagonalization with overlap
     ethr =  2.79E-05,  avg # of iterations =  3.7

     negative rho (up, down):  7.604E-04 0.000E+00

     total cpu time spent up to now is       22.0 secs

     total energy              =   -1228.37914758 Ry
     estimated scf accuracy    <       0.00053380 Ry

     iteration # 11     ecut=    60.00 Ry     beta= 0.50
     Davidson diagonalization with overlap
     ethr =  1.48E-06,  avg # of iterations =  5.6

     negative rho (up, down):  7.669E-04 0.000E+00

     total cpu time spent up to now is       24.0 secs

     total energy              =   -1228.37914376 Ry
     estimated scf accuracy    <       0.00079544 Ry

     iteration # 12     ecut=    60.00 Ry     beta= 0.50
     Davidson diagonalization with overlap
     ethr =  1.48E-06,  avg # of iterations =  4.3

     negative rho (up, down):  7.482E-04 0.000E+00

     total cpu time spent up to now is       25.9 secs

     total energy              =   -1228.37927486 Ry
     estimated scf accuracy    <       0.00015361 Ry

     iteration # 13     ecut=    60.00 Ry     beta= 0.50
     Davidson diagonalization with overlap
     ethr =  4.27E-07,  avg # of iterations =  2.0

     negative rho (up, down):  7.427E-04 0.000E+00

     total cpu time spent up to now is       27.4 secs

     total energy              =   -1228.37926215 Ry
     estimated scf accuracy    <       0.00007352 Ry

     iteration # 14     ecut=    60.00 Ry     beta= 0.50
     Davidson diagonalization with overlap
     ethr =  2.04E-07,  avg # of iterations =  4.5

     negative rho (up, down):  7.446E-04 0.000E+00

     total cpu time spent up to now is       29.2 secs

     total energy              =   -1228.37928238 Ry
     estimated scf accuracy    <       0.00003322 Ry

     iteration # 15     ecut=    60.00 Ry     beta= 0.50
     Davidson diagonalization with overlap
     ethr =  9.23E-08,  avg # of iterations =  1.0

     negative rho (up, down):  7.455E-04 0.000E+00

     total cpu time spent up to now is       30.6 secs

     total energy              =   -1228.37927955 Ry
     estimated scf accuracy    <       0.00002736 Ry

     iteration # 16     ecut=    60.00 Ry     beta= 0.50
     Davidson diagonalization with overlap
     ethr =  7.60E-08,  avg # of iterations =  2.1

     negative rho (up, down):  7.457E-04 0.000E+00

     total cpu time spent up to now is       32.1 secs

     total energy              =   -1228.37927888 Ry
     estimated scf accuracy    <       0.00000990 Ry

     iteration # 17     ecut=    60.00 Ry     beta= 0.50
     Davidson diagonalization with overlap
     ethr =  2.75E-08,  avg # of iterations =  4.5

     negative rho (up, down):  7.458E-04 0.000E+00

     total cpu time spent up to now is       33.9 secs

     total energy              =   -1228.37928065 Ry
     estimated scf accuracy    <       0.00000052 Ry

     iteration # 18     ecut=    60.00 Ry     beta= 0.50
     Davidson diagonalization with overlap
     ethr =  1.44E-09,  avg # of iterations =  5.8

     negative rho (up, down):  7.451E-04 0.000E+00

     total cpu time spent up to now is       35.9 secs

     total energy              =   -1228.37928085 Ry
     estimated scf accuracy    <       0.00000202 Ry

     iteration # 19     ecut=    60.00 Ry     beta= 0.50
     Davidson diagonalization with overlap
     ethr =  1.44E-09,  avg # of iterations =  1.0

     negative rho (up, down):  7.466E-04 0.000E+00

     total cpu time spent up to now is       37.3 secs

     total energy              =   -1228.37928069 Ry
     estimated scf accuracy    <       0.00000199 Ry

     iteration # 20     ecut=    60.00 Ry     beta= 0.50
     Davidson diagonalization with overlap
     ethr =  1.44E-09,  avg # of iterations =  2.1

     negative rho (up, down):  7.462E-04 0.000E+00

     total cpu time spent up to now is       38.8 secs

     total energy              =   -1228.37928046 Ry
     estimated scf accuracy    <       0.00000120 Ry

     iteration # 21     ecut=    60.00 Ry     beta= 0.50
     Davidson diagonalization with overlap
     ethr =  1.44E-09,  avg # of iterations =  5.1

     negative rho (up, down):  7.463E-04 0.000E+00

     total cpu time spent up to now is       40.8 secs

     total energy              =   -1228.37928066 Ry
     estimated scf accuracy    <       0.00000015 Ry

     iteration # 22     ecut=    60.00 Ry     beta= 0.50
     Davidson diagonalization with overlap
     ethr =  4.30E-10,  avg # of iterations =  1.9

     negative rho (up, down):  7.464E-04 0.000E+00

     total cpu time spent up to now is       42.3 secs

     total energy              =   -1228.37928063 Ry
     estimated scf accuracy    <       0.00000013 Ry

     iteration # 23     ecut=    60.00 Ry     beta= 0.50
     Davidson diagonalization with overlap
     ethr =  3.71E-10,  avg # of iterations =  3.1

     negative rho (up, down):  7.466E-04 0.000E+00

     total cpu time spent up to now is       44.0 secs

     total energy              =   -1228.37928066 Ry
     estimated scf accuracy    <       0.00000002 Ry

     iteration # 24     ecut=    60.00 Ry     beta= 0.50
     Davidson diagonalization with overlap
     ethr =  4.73E-11,  avg # of iterations =  5.4

     negative rho (up, down):  7.469E-04 0.000E+00

     total cpu time spent up to now is       46.1 secs

     total energy              =   -1228.37928066 Ry
     estimated scf accuracy    <       0.00000009 Ry

     iteration # 25     ecut=    60.00 Ry     beta= 0.50
     Davidson diagonalization with overlap
     ethr =  4.73E-11,  avg # of iterations =  2.8

     negative rho (up, down):  7.468E-04 0.000E+00

     total cpu time spent up to now is       47.7 secs

     total energy              =   -1228.37928065 Ry
     estimated scf accuracy    <       0.00000007 Ry

     iteration # 26     ecut=    60.00 Ry     beta= 0.50
     Davidson diagonalization with overlap
     ethr =  4.73E-11,  avg # of iterations =  4.0

     negative rho (up, down):  7.468E-04 0.000E+00

     total cpu time spent up to now is       49.5 secs

     total energy              =   -1228.37928065 Ry
     estimated scf accuracy    <       0.00000001 Ry

     iteration # 27     ecut=    60.00 Ry     beta= 0.50
     Davidson diagonalization with overlap
     ethr =  4.05E-11,  avg # of iterations =  3.2

     negative rho (up, down):  7.472E-04 0.000E+00

     total cpu time spent up to now is       51.2 secs

     End of self-consistent calculation

          k = 0.0000 0.0000 0.0000 ( 11811 PWs)   bands (ev):

   -75.2381 -48.4207 -48.4207 -48.4173 -48.4159 -48.4159 -39.4088 -39.1503
   -39.1503 -14.9932 -13.8032  -6.8568  -3.7196  -2.1969  -1.8502  -1.8502
    -0.7804  -0.7804

          k = 0.0000 0.0608 0.0000 ( 11803 PWs)   bands (ev):

   -75.2378 -48.4207 -48.4205 -48.4172 -48.4159 -48.4159 -39.4077 -39.1576
   -39.1521 -14.9536 -13.7726  -6.7946  -3.7286  -2.1721  -1.9750  -1.8052
    -0.8810  -0.8527

          k = 0.0000 0.1215 0.0000 ( 11793 PWs)   bands (ev):

   -75.2367 -48.4207 -48.4201 -48.4169 -48.4160 -48.4159 -39.4044 -39.1788
   -39.1572 -14.8365 -13.6821  -6.6127  -3.7575  -2.3299  -2.1031  -1.6764
    -1.1949  -1.0456

          k = 0.0000 0.1823 0.0000 ( 11783 PWs)   bands (ev):

   -75.2350 -48.4208 -48.4194 -48.4166 -48.4162 -48.4159 -39.3994 -39.2114
   -39.1651 -14.6474 -13.5360  -6.3266  -3.8145  -2.8529  -2.0328  -1.7048
    -1.4845  -1.3076

          k = 0.0000 0.2431 0.0000 ( 11801 PWs)   bands (ev):

   -75.2330 -48.4210 -48.4187 -48.4167 -48.4159 -48.4158 -39.3932 -39.2517
   -39.1749 -14.3959 -13.3419  -5.9670  -3.9316  -3.4729  -2.3324  -1.9984
    -1.5940  -1.2657

          k = 0.0000 0.3039 0.0000 ( 11769 PWs)   bands (ev):

   -75.2307 -48.4211 -48.4180 -48.4170 -48.4156 -48.4152 -39.3864 -39.2952
   -39.1855 -14.0973 -13.1121  -5.5962  -4.2908  -3.9816  -2.8817  -2.0748
    -1.8673  -1.0791

          k = 0.0000 0.3646 0.0000 ( 11759 PWs)   bands (ev):

   -75.2285 -48.4213 -48.4175 -48.4173 -48.4152 -48.4146 -39.3799 -39.3373
   -39.1959 -13.7748 -12.8645  -5.4072  -4.8136  -4.3199  -3.2335  -2.1676
    -2.1065  -0.9700

          k = 0.0000 0.4254 0.0000 ( 11761 PWs)   bands (ev):

   -75.2266 -48.4215 -48.4176 -48.4173 -48.4147 -48.4140 -39.3749 -39.3726
   -39.2048 -13.4628 -12.6251  -5.7829  -5.0168  -4.5138  -3.3988  -2.2966
    -2.1738  -0.9383

          k = 0.0000 0.4862 0.0000 ( 11731 PWs)   bands (ev):

   -75.2252 -48.4216 -48.4179 -48.4172 -48.4141 -48.4134 -39.3998 -39.3699
   -39.2113 -13.2081 -12.4287  -6.2418  -5.2874  -4.4725  -3.4711  -2.4280
    -2.0808  -0.9466

          k = 0.0000 0.5470 0.0000 ( 11702 PWs)   bands (ev):

   -75.2245 -48.4217 -48.4180 -48.4172 -48.4138 -48.4131 -39.4137 -39.3677
   -39.2148 -13.0624 -12.3154  -6.5080  -5.4685  -4.4358  -3.4991  -2.4950
    -1.9836  -0.9597

          k = 0.0526 0.0912 0.0000 ( 11779 PWs)   bands (ev):

   -75.2370 -48.4207 -48.4203 -48.4170 -48.4160 -48.4158 -39.4055 -39.1717
   -39.1557 -14.8752 -13.7120  -6.6724  -3.7472  -2.2158  -2.1220  -1.7202
    -1.1000  -0.9740

          k = 0.0526 0.1519 0.0000 ( 11802 PWs)   bands (ev):

   -75.2357 -48.4208 -48.4198 -48.4167 -48.4162 -48.4159 -39.4014 -39.1982
   -39.1626 -14.7221 -13.5937  -6.4376  -3.7872  -2.6456  -2.0520  -1.5679
    -1.5306  -1.1868

          k = 0.0526 0.2127 0.0000 ( 11803 PWs)   bands (ev):

   -75.2338 -48.4209 -48.4191 -48.4166 -48.4162 -48.4158 -39.3958 -39.2340
   -39.1720 -14.5016 -13.4234  -6.1114  -3.8612  -3.2111  -2.1233  -1.9917
    -1.4563  -1.3750

          k = 0.0526 0.2735 0.0000 ( 11788 PWs)   bands (ev):

   -75.2316 -48.4210 -48.4184 -48.4169 -48.4159 -48.4154 -39.3893 -39.2753
   -39.1829 -14.2259 -13.2109  -5.7354  -4.0510  -3.7972  -2.7131  -2.0435
    -1.7392  -1.1893

          k = 0.0526 0.3343 0.0000 ( 11773 PWs)   bands (ev):

   -75.2294 -48.4211 -48.4178 -48.4172 -48.4156 -48.4147 -39.3826 -39.3174
   -39.1941 -13.9141 -12.9711  -5.4074  -4.5822  -4.1477  -3.1637  -2.1629
    -2.0053  -1.0621

          k = 0.0526 0.3950 0.0000 ( 11760 PWs)   bands (ev):

   -75.2274 -48.4213 -48.4175 -48.4174 -48.4151 -48.4141 -39.3765 -39.3558
   -39.2044 -13.5943 -12.7256  -5.5090  -4.9025  -4.4514  -3.3856  -2.2845
    -2.1952  -1.0228

          k = 0.0526 0.4558 0.0000 ( 11729 PWs)   bands (ev):

   -75.2257 -48.4214 -48.4177 -48.4173 -48.4145 -48.4136 -39.3866 -39.3714
   -39.2126 -13.3072 -12.5047  -5.9961  -5.1248  -4.4854  -3.4689  -2.4476
    -2.1851  -1.0361

          k = 0.0526 0.5166 0.0000 ( 11704 PWs)   bands (ev):

   -75.2247 -48.4215 -48.4179 -48.4172 -48.4140 -48.4132 -39.4064 -39.3682
   -39.2179 -13.1031 -12.3464  -6.3690  -5.3733  -4.4275  -3.4958  -2.5647
    -2.0935  -1.0559

          k = 0.0526 0.5774 0.0000 ( 11688 PWs)   bands (ev):

   -75.2243 -48.4215 -48.4179 -48.4172 -48.4139 -48.4131 -39.4132 -39.3671
   -39.2198 -13.0285 -12.2881  -6.5048  -5.4681  -4.4086  -3.5013  -2.6060
    -2.0450  -1.0629

          k = 0.1053 0.1823 0.0000 ( 11801 PWs)   bands (ev):

   -75.2341 -48.4208 -48.4193 -48.4165 -48.4163 -48.4158 -39.3967 -39.2272
   -39.1718 -14.5374 -13.4510  -6.1603  -3.8355  -3.1097  -2.0614  -1.9978
    -1.4292  -1.3877

          k = 0.1053 0.2431 0.0000 ( 11783 PWs)   bands (ev):

   -75.2321 -48.4208 -48.4187 -48.4167 -48.4161 -48.4153 -39.3908 -39.2627
   -39.1835 -14.2921 -13.2617  -5.8076  -3.9229  -3.6573  -2.6569  -2.0350
    -1.6424  -1.2902

          k = 0.1053 0.3039 0.0000 ( 11784 PWs)   bands (ev):

   -75.2300 -48.4208 -48.4182 -48.4170 -48.4160 -48.4147 -39.3844 -39.3010
   -39.1965 -14.0016 -13.0379  -5.4337  -4.3291  -3.9970  -3.1965  -2.1796
    -1.9210  -1.1841

          k = 0.1053 0.3646 0.0000 ( 11783 PWs)   bands (ev):

   -75.2279 -48.4209 -48.4177 -48.4173 -48.4157 -48.4141 -39.3781 -39.3379
   -39.2092 -13.6891 -12.7974  -5.2470  -4.8011  -4.2912  -3.4905  -2.3641
    -2.1843  -1.1645

          k = 0.1053 0.4254 0.0000 ( 11733 PWs)   bands (ev):

   -75.2261 -48.4210 -48.4176 -48.4174 -48.4151 -48.4136 -39.3730 -39.3693
   -39.2201 -13.3882 -12.5656  -5.6675  -4.9110  -4.4780  -3.5599  -2.5475
    -2.3491  -1.1970

          k = 0.1053 0.4862 0.0000 ( 11716 PWs)   bands (ev):

   -75.2248 -48.4210 -48.4177 -48.4174 -48.4145 -48.4133 -39.3928 -39.3687
   -39.2281 -13.1439 -12.3763  -6.1087  -5.1917  -4.3992  -3.5428  -2.7371
    -2.3667  -1.2141

          k = 0.1053 0.5470 0.0000 ( 11683 PWs)   bands (ev):

   -75.2241 -48.4210 -48.4178 -48.4173 -48.4141 -48.4132 -39.4050 -39.3666
   -39.2323 -13.0048 -12.2675  -6.3599  -5.3734  -4.3519  -3.5084  -2.8615
    -2.3395  -1.2064

          k = 0.1579 0.2735 0.0000 ( 11791 PWs)   bands (ev):

   -75.2302 -48.4206 -48.4184 -48.4169 -48.4162 -48.4147 -39.3850 -39.2944
   -39.1983 -14.0315 -13.0606  -5.4451  -4.2099  -3.9366  -3.2383  -2.1915
    -1.8841  -1.2339

          k = 0.1579 0.3343 0.0000 ( 11776 PWs)   bands (ev):

   -75.2282 -48.4205 -48.4180 -48.4171 -48.4161 -48.4141 -39.3790 -39.3258
   -39.2144 -13.7386 -12.8346  -5.0985  -4.7113  -4.0854  -3.6882  -2.4444
    -2.1629  -1.2421

          k = 0.1579 0.3950 0.0000 ( 11735 PWs)   bands (ev):

   -75.2264 -48.4204 -48.4178 -48.4173 -48.4157 -48.4136 -39.3736 -39.3540
   -39.2296 -13.4411 -12.6049  -5.3254  -4.7372  -4.4255  -3.7764  -2.7033
    -2.4440  -1.2897

          k = 0.1579 0.4558 0.0000 ( 11718 PWs)   bands (ev):

   -75.2249 -48.4204 -48.4176 -48.4174 -48.4152 -48.4133 -39.3766 -39.3690
   -39.2421 -13.1769 -12.3998  -5.7778  -4.9485  -4.3876  -3.7175  -2.9221
    -2.6727  -1.2930

          k = 0.1579 0.5166 0.0000 ( 11697 PWs)   bands (ev):

   -75.2240 -48.4204 -48.4176 -48.4175 -48.4147 -48.4133 -39.3908 -39.3662
   -39.2502 -12.9911 -12.2542  -6.0979  -5.2006  -4.2920  -3.6066  -3.1231
    -2.7908  -1.2462

          k = 0.1579 0.5774 0.0000 ( 11680 PWs)   bands (ev):

   -75.2236 -48.4204 -48.4176 -48.4175 -48.4144 -48.4133 -39.3958 -39.3652
   -39.2530 -12.9237 -12.2010  -6.2136  -5.2920  -4.2665  -3.5221  -3.2416
    -2.8204  -1.2161

          k = 0.2105 0.3646 0.0000 ( 11733 PWs)   bands (ev):

   -75.2265 -48.4201 -48.4179 -48.4172 -48.4160 -48.4136 -39.3738 -39.3474
   -39.2342 -13.4594 -12.6184  -5.1420  -4.7261  -4.3067  -3.9577  -2.7944
    -2.4559  -1.3114

          k = 0.2105 0.4254 0.0000 ( 11717 PWs)   bands (ev):

   -75.2250 -48.4199 -48.4178 -48.4172 -48.4157 -48.4133 -39.3694 -39.3640
   -39.2532 -13.1954 -12.4127  -5.4990  -4.7149  -4.4251  -3.9468  -3.1318
    -2.7660  -1.3086

          k = 0.2105 0.4862 0.0000 ( 11707 PWs)   bands (ev):

   -75.2239 -48.4198 -48.4178 -48.4173 -48.4153 -48.4133 -39.3753 -39.3659
   -39.2683 -12.9849 -12.2472  -5.7907  -5.0034  -4.2670  -3.8551  -3.3695
    -3.0539  -1.2256

          k = 0.2105 0.5470 0.0000 ( 11681 PWs)   bands (ev):

   -75.2233 -48.4198 -48.4178 -48.4173 -48.4149 -48.4134 -39.3807 -39.3642
   -39.2766 -12.8669 -12.1535  -5.9570  -5.1609  -4.2145  -3.7269  -3.4910
    -3.2625  -1.1398

          k = 0.2632 0.4558 0.0000 ( 11723 PWs)   bands (ev):

   -75.2239 -48.4195 -48.4180 -48.4170 -48.4157 -48.4134 -39.3677 -39.3656
   -39.2769 -12.9833 -12.2451  -5.6263  -4.9115  -4.2591  -4.0184  -3.5195
    -3.0839  -1.2086

          k = 0.2632 0.5166 0.0000 ( 11686 PWs)   bands (ev):

   -75.2231 -48.4193 -48.4180 -48.4168 -48.4155 -48.4135 -39.3659 -39.3636
   -39.2960 -12.8380 -12.1290  -5.6908  -5.0785  -4.2199  -4.0021  -3.7175
    -3.3465  -1.0665

          k = 0.2632 0.5774 0.0000 ( 11670 PWs)   bands (ev):

   -75.2229 -48.4192 -48.4181 -48.4168 -48.4153 -48.4136 -39.3639 -39.3629
   -39.3040 -12.7861 -12.0872  -5.7078  -5.1418  -4.2704  -3.9323  -3.7614
    -3.4676  -0.9987

          k = 0.3158 0.5470 0.0000 ( 11678 PWs)   bands (ev):

   -75.2227 -48.4189 -48.4183 -48.4163 -48.4157 -48.4137 -39.3625 -39.3501
   -39.3214 -12.7580 -12.0641  -5.5021  -5.2197  -4.3500  -4.0059  -3.8747
    -3.4914  -0.9318

     highest occupied level (ev):    -0.7804

!    total energy              =   -1228.37928065 Ry
     total all-electron energy =    -37944.469711 Ry
     estimated scf accuracy    <          3.5E-09 Ry

     The total energy is the sum of the following terms:
     one-electron contribution =   -2749.50476052 Ry
     hartree contribution      =    1372.31296791 Ry
     xc contribution           =     -73.23286750 Ry
     ewald contribution        =    1014.62638954 Ry
     one-center paw contrib.   =    -792.58101009 Ry

     convergence has been achieved in  27 iterations

     Writing all to output data dir ./work/WSSe.save/

     init_run     :      1.42s CPU      1.52s WALL (       1 calls)
     electrons    :     46.50s CPU     49.36s WALL (       1 calls)

     Called by init_run:
     wfcinit      :      0.67s CPU      0.72s WALL (       1 calls)
     potinit      :      0.16s CPU      0.18s WALL (       1 calls)
     hinit0       :      0.50s CPU      0.50s WALL (       1 calls)

     Called by electrons:
     c_bands      :     36.12s CPU     38.46s WALL (      28 calls)
     sum_band     :      6.75s CPU      7.20s WALL (      28 calls)
     v_of_rho     :      0.16s CPU      0.17s WALL (      28 calls)
     newd         :      1.99s CPU      2.02s WALL (      28 calls)
     PAW_pot      :      1.45s CPU      1.53s WALL (      28 calls)
     mix_rho      :      0.09s CPU      0.09s WALL (      28 calls)

     Called by c_bands:
     init_us_2    :      0.63s CPU      0.67s WALL (    2280 calls)
     init_us_2:cp :      0.63s CPU      0.67s WALL (    2280 calls)
     cegterg      :     34.33s CPU     36.62s WALL (    1120 calls)

     Called by *egterg:
     cdiaghg      :      1.30s CPU      1.35s WALL (    5178 calls)
     h_psi        :     22.60s CPU     24.60s WALL (    5258 calls)
     s_psi        :      2.90s CPU      3.04s WALL (    5258 calls)
     g_psi        :      0.12s CPU      0.12s WALL (    4098 calls)

     Called by h_psi:
     h_psi:calbec :      2.97s CPU      3.28s WALL (    5258 calls)
     vloc_psi     :     16.69s CPU     18.16s WALL (    5258 calls)
     add_vuspsi   :      2.87s CPU      3.09s WALL (    5258 calls)

     General routines
     calbec       :      4.04s CPU      4.46s WALL (    6378 calls)
     fft          :      0.39s CPU      0.39s WALL (     309 calls)
     ffts         :      0.01s CPU      0.01s WALL (      28 calls)
     fftw         :     18.30s CPU     19.91s WALL (  126400 calls)

     Parallel routines

     PWSCF        :     48.31s CPU     51.34s WALL


   This run was terminated on:  11:14: 8  30Jan2023            

=------------------------------------------------------------------------------=
   JOB DONE.
=------------------------------------------------------------------------------=
