
     Program PWSCF v.7.1 starts on 31Jan2023 at 11: 9:59 

     This program is part of the open-source Quantum ESPRESSO suite
     for quantum simulation of materials; please cite
         "P. Giannozzi et al., J. Phys.:Condens. Matter 21 395502 (2009);
         "P. Giannozzi et al., J. Phys.:Condens. Matter 29 465901 (2017);
         "P. Giannozzi et al., J. Chem. Phys. 152 154105 (2020);
          URL http://www.quantum-espresso.org", 
     in publications or presentations arising from this work. More details at
     http://www.quantum-espresso.org/quote

     Parallel version (MPI), running on    12 processors

     MPI processes distributed on     1 nodes
     127395 MiB available memory on the printing compute node when the environment starts

     Waiting for input...
     Reading input from standard input

     Current dimensions of program PWSCF are:
     Max number of different atomic species (ntypx) = 10
     Max number of k-points (npk) =  40000
     Max angular momentum in pseudopotentials (lmaxx) =  4
     file W.pbe-spn-kjpaw_psl.1.0.0.UPF: wavefunction(s)  6S 5P 5D renormalized
     file S.pbe-n-kjpaw_psl.1.0.0.UPF: wavefunction(s)  3S 3P renormalized
     file Se.pbe-dn-kjpaw_psl.1.0.0.UPF: wavefunction(s)  4S 4P 3D renormalized
     Message from routine setup:
     using ibrav=0 with symmetry is DISCOURAGED, use correct ibrav instead

     R & G space division:  proc/nbgrp/npool/nimage =      12
     Subspace diagonalization in iterative solution of the eigenvalue problem:
     a serial algorithm will be used


     Parallelization info
     --------------------
     sticks:   dense  smooth     PW     G-vecs:    dense   smooth      PW
     Min          49      49     14                 7632     7632    1212
     Max          51      51     15                 7669     7669    1242
     Sum         595     595    169                91835    91835   14719

     Using Slab Decomposition



     bravais-lattice index     =            0
     lattice parameter (alat)  =       5.9796  a.u.
     unit-cell volume          =    1462.8984 (a.u.)^3
     number of atoms/cell      =            3
     number of atomic types    =            3
     number of electrons       =        36.00
     number of Kohn-Sham states=           36
     kinetic-energy cutoff     =      60.0000  Ry
     charge density cutoff     =     240.0000  Ry
     scf convergence threshold =      1.0E-08
     mixing beta               =       0.5000
     number of iterations used =            8  plain     mixing
     Exchange-correlation= SLA  PW   PBX  PBC
                           (   1   4   3   4   0   0   0)

     celldm(1)=   5.979603  celldm(2)=   0.000000  celldm(3)=   0.000000
     celldm(4)=   0.000000  celldm(5)=   0.000000  celldm(6)=   0.000000

     crystal axes: (cart. coord. in units of alat)
               a(1) = (   1.000000   0.000000   0.000000 )  
               a(2) = (  -0.500000   0.866025   0.000000 )  
               a(3) = (   0.000000   0.000000   7.900718 )  

     reciprocal axes: (cart. coord. in units 2 pi/alat)
               b(1) = (  1.000000  0.577350 -0.000000 )  
               b(2) = (  0.000000  1.154701  0.000000 )  
               b(3) = (  0.000000 -0.000000  0.126571 )  


     PseudoPot. # 1 for W  read from file:
     /home/mainadmin/research/danu/pseudo/W.pbe-spn-kjpaw_psl.1.0.0.UPF
     MD5 check sum: 03c3df5b60893f488392c7401945500a
     Pseudo is Projector augmented-wave + core cor, Zval = 14.0
     Generated using &quot;atomic&quot; code by A. Dal Corso  v.6.2.2
     Shape of augmentation charge: PSQ
     Using radial grid of 1273 points,  6 beta functions with: 
                l(1) =   0
                l(2) =   0
                l(3) =   1
                l(4) =   1
                l(5) =   2
                l(6) =   2
     Q(r) pseudized with 0 coefficients 


     PseudoPot. # 2 for S  read from file:
     /home/mainadmin/research/danu/pseudo/S.pbe-n-kjpaw_psl.1.0.0.UPF
     MD5 check sum: fb45dfebcf3e72a4e1bd4a866ec2e262
     Pseudo is Projector augmented-wave + core cor, Zval =  6.0
     Generated using &quot;atomic&quot; code by A. Dal Corso  v.6.3
     Shape of augmentation charge: PSQ
     Using radial grid of 1151 points,  6 beta functions with: 
                l(1) =   0
                l(2) =   0
                l(3) =   1
                l(4) =   1
                l(5) =   2
                l(6) =   2
     Q(r) pseudized with 0 coefficients 


     PseudoPot. # 3 for Se read from file:
     /home/mainadmin/research/danu/pseudo/Se.pbe-dn-kjpaw_psl.1.0.0.UPF
     MD5 check sum: ac240dd2bae32a30e0bf3a38df9c8785
     Pseudo is Projector augmented-wave + core cor, Zval = 16.0
     Generated using &quot;atomic&quot; code by A. Dal Corso  v.6.3
     Shape of augmentation charge: PSQ
     Using radial grid of 1211 points,  6 beta functions with: 
                l(1) =   0
                l(2) =   0
                l(3) =   1
                l(4) =   1
                l(5) =   2
                l(6) =   2
     Q(r) pseudized with 0 coefficients 


     atomic species   valence    mass     pseudopotential
        W             14.00   183.84000     W ( 1.00)
        S              6.00    32.06500     S ( 1.00)
        Se            16.00    78.96000     Se( 1.00)

      6 Sym. Ops. (no inversion) found



   Cartesian axes

     site n.     atom                  positions (alat units)
         1           Se  tau(   1) = (   0.5000000   0.2886751   4.4957047  )
         2           W   tau(   2) = (  -0.0000000   0.5773503   3.9245440  )
         3           S   tau(   3) = (   0.5000000   0.2886751  -4.4698899  )

     number of k points=    61
                       cart. coord. in units 2pi/alat
        k(    1) = (   0.0000000   0.0000000   0.0000000), wk =   0.0034722
        k(    2) = (   0.0000000   0.0481125   0.0000000), wk =   0.0208333
        k(    3) = (   0.0000000   0.0962250   0.0000000), wk =   0.0208333
        k(    4) = (   0.0000000   0.1443376   0.0000000), wk =   0.0208333
        k(    5) = (   0.0000000   0.1924501   0.0000000), wk =   0.0208333
        k(    6) = (   0.0000000   0.2405626   0.0000000), wk =   0.0208333
        k(    7) = (   0.0000000   0.2886751   0.0000000), wk =   0.0208333
        k(    8) = (   0.0000000   0.3367877   0.0000000), wk =   0.0208333
        k(    9) = (   0.0000000   0.3849002   0.0000000), wk =   0.0208333
        k(   10) = (   0.0000000   0.4330127   0.0000000), wk =   0.0208333
        k(   11) = (   0.0000000   0.4811252   0.0000000), wk =   0.0208333
        k(   12) = (   0.0000000   0.5292377   0.0000000), wk =   0.0208333
        k(   13) = (   0.0000000  -0.5773503   0.0000000), wk =   0.0104167
        k(   14) = (   0.0416667   0.0721688   0.0000000), wk =   0.0208333
        k(   15) = (   0.0416667   0.1202813   0.0000000), wk =   0.0416667
        k(   16) = (   0.0416667   0.1683938   0.0000000), wk =   0.0416667
        k(   17) = (   0.0416667   0.2165064   0.0000000), wk =   0.0416667
        k(   18) = (   0.0416667   0.2646189   0.0000000), wk =   0.0416667
        k(   19) = (   0.0416667   0.3127314   0.0000000), wk =   0.0416667
        k(   20) = (   0.0416667   0.3608439   0.0000000), wk =   0.0416667
        k(   21) = (   0.0416667   0.4089564   0.0000000), wk =   0.0416667
        k(   22) = (   0.0416667   0.4570690   0.0000000), wk =   0.0416667
        k(   23) = (   0.0416667   0.5051815   0.0000000), wk =   0.0416667
        k(   24) = (   0.0416667   0.5532940   0.0000000), wk =   0.0416667
        k(   25) = (   0.0833333   0.1443376   0.0000000), wk =   0.0208333
        k(   26) = (   0.0833333   0.1924501   0.0000000), wk =   0.0416667
        k(   27) = (   0.0833333   0.2405626   0.0000000), wk =   0.0416667
        k(   28) = (   0.0833333   0.2886751   0.0000000), wk =   0.0416667
        k(   29) = (   0.0833333   0.3367877   0.0000000), wk =   0.0416667
        k(   30) = (   0.0833333   0.3849002   0.0000000), wk =   0.0416667
        k(   31) = (   0.0833333   0.4330127   0.0000000), wk =   0.0416667
        k(   32) = (   0.0833333   0.4811252   0.0000000), wk =   0.0416667
        k(   33) = (   0.0833333   0.5292377   0.0000000), wk =   0.0416667
        k(   34) = (   0.0833333   0.5773503   0.0000000), wk =   0.0208333
        k(   35) = (   0.1250000   0.2165064   0.0000000), wk =   0.0208333
        k(   36) = (   0.1250000   0.2646189   0.0000000), wk =   0.0416667
        k(   37) = (   0.1250000   0.3127314   0.0000000), wk =   0.0416667
        k(   38) = (   0.1250000   0.3608439   0.0000000), wk =   0.0416667
        k(   39) = (   0.1250000   0.4089564   0.0000000), wk =   0.0416667
        k(   40) = (   0.1250000   0.4570690   0.0000000), wk =   0.0416667
        k(   41) = (   0.1250000   0.5051815   0.0000000), wk =   0.0416667
        k(   42) = (   0.1250000   0.5532940   0.0000000), wk =   0.0416667
        k(   43) = (   0.1666667   0.2886751   0.0000000), wk =   0.0208333
        k(   44) = (   0.1666667   0.3367877   0.0000000), wk =   0.0416667
        k(   45) = (   0.1666667   0.3849002   0.0000000), wk =   0.0416667
        k(   46) = (   0.1666667   0.4330127   0.0000000), wk =   0.0416667
        k(   47) = (   0.1666667   0.4811252   0.0000000), wk =   0.0416667
        k(   48) = (   0.1666667   0.5292377   0.0000000), wk =   0.0416667
        k(   49) = (   0.1666667   0.5773503   0.0000000), wk =   0.0208333
        k(   50) = (   0.2083333   0.3608439   0.0000000), wk =   0.0208333
        k(   51) = (   0.2083333   0.4089564   0.0000000), wk =   0.0416667
        k(   52) = (   0.2083333   0.4570690   0.0000000), wk =   0.0416667
        k(   53) = (   0.2083333   0.5051815   0.0000000), wk =   0.0416667
        k(   54) = (   0.2083333   0.5532940   0.0000000), wk =   0.0416667
        k(   55) = (   0.2500000   0.4330127   0.0000000), wk =   0.0208333
        k(   56) = (   0.2500000   0.4811252   0.0000000), wk =   0.0416667
        k(   57) = (   0.2500000   0.5292377   0.0000000), wk =   0.0416667
        k(   58) = (   0.2500000   0.5773503   0.0000000), wk =   0.0208333
        k(   59) = (   0.2916667   0.5051815   0.0000000), wk =   0.0208333
        k(   60) = (   0.2916667   0.5532940   0.0000000), wk =   0.0416667
        k(   61) = (   0.3333333   0.5773503   0.0000000), wk =   0.0069444

     Dense  grid:    91835 G-vectors     FFT dimensions: (  30,  30, 240)

     Estimated max dynamical RAM per process >      63.85 MB

     Estimated total dynamical RAM >     766.17 MB

     Check: negative core charge=   -0.000001

     Initial potential from superposition of free atoms

     starting charge      35.9993, renormalised to      36.0000

     negative rho (up, down):  6.163E-04 0.000E+00
     Starting wfcs are   26 randomized atomic wfcs +   10 random wfcs
     Checking if some PAW data can be deallocated... 

     total cpu time spent up to now is        2.4 secs

     Self-consistent Calculation

     iteration #  1     ecut=    60.00 Ry     beta= 0.50
     Davidson diagonalization with overlap
     ethr =  1.00E-02,  avg # of iterations =  8.6

     Threshold (ethr) on eigenvalues was too large:
     Diagonalizing with lowered threshold

     Davidson diagonalization with overlap
     ethr =  3.49E-04,  avg # of iterations =  2.2

     negative rho (up, down):  8.191E-03 0.000E+00

     total cpu time spent up to now is       16.4 secs

     total energy              =   -1228.46571095 Ry
     estimated scf accuracy    <       0.12587264 Ry

     iteration #  2     ecut=    60.00 Ry     beta= 0.50
     Davidson diagonalization with overlap
     ethr =  3.50E-04,  avg # of iterations =  7.5

     negative rho (up, down):  1.663E-02 0.000E+00

     total cpu time spent up to now is       23.6 secs

     total energy              =   -1228.43595094 Ry
     estimated scf accuracy    <       0.62253112 Ry

     iteration #  3     ecut=    60.00 Ry     beta= 0.50
     Davidson diagonalization with overlap
     ethr =  3.50E-04,  avg # of iterations =  7.0

     negative rho (up, down):  7.257E-02 0.000E+00

     total cpu time spent up to now is       30.1 secs

     total energy              =   -1228.56662162 Ry
     estimated scf accuracy    <       0.09212900 Ry

     iteration #  4     ecut=    60.00 Ry     beta= 0.50
     Davidson diagonalization with overlap
     ethr =  2.56E-04,  avg # of iterations =  3.1

     negative rho (up, down):  1.395E-02 0.000E+00

     total cpu time spent up to now is       35.8 secs

     total energy              =   -1228.32792380 Ry
     estimated scf accuracy    <       1.05946775 Ry

     iteration #  5     ecut=    60.00 Ry     beta= 0.50
     Davidson diagonalization with overlap
     ethr =  2.56E-04,  avg # of iterations =  3.3

     negative rho (up, down):  1.861E-02 0.000E+00

     total cpu time spent up to now is       41.7 secs

     total energy              =   -1228.51662463 Ry
     estimated scf accuracy    <       0.04090042 Ry

     iteration #  6     ecut=    60.00 Ry     beta= 0.50
     Davidson diagonalization with overlap
     ethr =  1.14E-04,  avg # of iterations =  2.0

     negative rho (up, down):  1.476E-02 0.000E+00

     total cpu time spent up to now is       46.7 secs

     total energy              =   -1228.51899447 Ry
     estimated scf accuracy    <       0.03463996 Ry

     iteration #  7     ecut=    60.00 Ry     beta= 0.50
     Davidson diagonalization with overlap
     ethr =  9.62E-05,  avg # of iterations =  1.5

     negative rho (up, down):  4.834E-03 0.000E+00

     total cpu time spent up to now is       51.1 secs

     total energy              =   -1228.50155919 Ry
     estimated scf accuracy    <       0.02709819 Ry

     iteration #  8     ecut=    60.00 Ry     beta= 0.50
     Davidson diagonalization with overlap
     ethr =  7.53E-05,  avg # of iterations =  2.8

     negative rho (up, down):  9.366E-04 0.000E+00

     total cpu time spent up to now is       56.4 secs

     total energy              =   -1228.50313478 Ry
     estimated scf accuracy    <       0.00772484 Ry

     iteration #  9     ecut=    60.00 Ry     beta= 0.50
     Davidson diagonalization with overlap
     ethr =  2.15E-05,  avg # of iterations =  6.3

     negative rho (up, down):  1.391E-03 0.000E+00

     total cpu time spent up to now is       62.6 secs

     total energy              =   -1228.50435496 Ry
     estimated scf accuracy    <       0.00147951 Ry

     iteration # 10     ecut=    60.00 Ry     beta= 0.50
     Davidson diagonalization with overlap
     ethr =  4.11E-06,  avg # of iterations =  2.9

     negative rho (up, down):  1.333E-03 0.000E+00

     total cpu time spent up to now is       67.8 secs

     total energy              =   -1228.50484609 Ry
     estimated scf accuracy    <       0.00033353 Ry

     iteration # 11     ecut=    60.00 Ry     beta= 0.50
     Davidson diagonalization with overlap
     ethr =  9.26E-07,  avg # of iterations =  2.2

     negative rho (up, down):  2.317E-03 0.000E+00

     total cpu time spent up to now is       72.7 secs

     total energy              =   -1228.50436104 Ry
     estimated scf accuracy    <       0.00077258 Ry

     iteration # 12     ecut=    60.00 Ry     beta= 0.50
     Davidson diagonalization with overlap
     ethr =  9.26E-07,  avg # of iterations =  4.2

     negative rho (up, down):  2.114E-03 0.000E+00

     total cpu time spent up to now is       78.5 secs

     total energy              =   -1228.50467896 Ry
     estimated scf accuracy    <       0.00001139 Ry

     iteration # 13     ecut=    60.00 Ry     beta= 0.50
     Davidson diagonalization with overlap
     ethr =  3.17E-08,  avg # of iterations =  2.5

     negative rho (up, down):  2.109E-03 0.000E+00

     total cpu time spent up to now is       83.5 secs

     total energy              =   -1228.50468338 Ry
     estimated scf accuracy    <       0.00000474 Ry

     iteration # 14     ecut=    60.00 Ry     beta= 0.50
     Davidson diagonalization with overlap
     ethr =  1.32E-08,  avg # of iterations =  2.0

     negative rho (up, down):  2.017E-03 0.000E+00

     total cpu time spent up to now is       88.3 secs

     total energy              =   -1228.50468240 Ry
     estimated scf accuracy    <       0.00000099 Ry

     iteration # 15     ecut=    60.00 Ry     beta= 0.50
     Davidson diagonalization with overlap
     ethr =  2.76E-09,  avg # of iterations =  3.0

     negative rho (up, down):  2.010E-03 0.000E+00

     total cpu time spent up to now is       93.5 secs

     total energy              =   -1228.50468364 Ry
     estimated scf accuracy    <       0.00000019 Ry

     iteration # 16     ecut=    60.00 Ry     beta= 0.50
     Davidson diagonalization with overlap
     ethr =  5.14E-10,  avg # of iterations =  2.0

     negative rho (up, down):  2.014E-03 0.000E+00

     total cpu time spent up to now is       98.3 secs

     total energy              =   -1228.50468362 Ry
     estimated scf accuracy    <       0.00000027 Ry

     iteration # 17     ecut=    60.00 Ry     beta= 0.50
     Davidson diagonalization with overlap
     ethr =  5.14E-10,  avg # of iterations =  1.1

     negative rho (up, down):  2.039E-03 0.000E+00

     total cpu time spent up to now is      102.5 secs

     total energy              =   -1228.50468337 Ry
     estimated scf accuracy    <       0.00000023 Ry

     iteration # 18     ecut=    60.00 Ry     beta= 0.50
     Davidson diagonalization with overlap
     ethr =  5.14E-10,  avg # of iterations =  2.0

     negative rho (up, down):  2.045E-03 0.000E+00

     total cpu time spent up to now is      107.5 secs

     total energy              =   -1228.50468344 Ry
     estimated scf accuracy    <       0.00000003 Ry

     iteration # 19     ecut=    60.00 Ry     beta= 0.50
     Davidson diagonalization with overlap
     ethr =  7.90E-11,  avg # of iterations =  2.0

     negative rho (up, down):  1.992E-03 0.000E+00

     total cpu time spent up to now is      112.4 secs

     End of self-consistent calculation

          k = 0.0000 0.0000 0.0000 ( 11595 PWs)   bands (ev):

   -74.8198 -48.3493 -48.3493 -48.3232 -48.3232 -48.3154 -39.0916 -38.8612
   -38.8612 -15.7268 -14.3864  -7.2606  -3.5066  -3.2768  -3.2768  -1.6731
    -1.6731  -1.2328   2.3108   2.3108   2.3870   2.3870   3.3515   3.8557
     4.0172   4.6644   4.8383   5.5955   6.4205   7.4072   8.0781   8.7939
     9.6350  10.0708  10.0708  11.2617

          k = 0.0000 0.0481 0.0000 ( 11569 PWs)   bands (ev):

   -74.8195 -48.3493 -48.3492 -48.3233 -48.3232 -48.3152 -39.0905 -38.8672
   -38.8626 -15.6971 -14.3713  -7.2229  -3.5947  -3.2901  -3.2572  -1.7239
    -1.7136  -1.2242   2.2226   2.2753   2.3189   2.3947   3.4110   3.8930
     4.0739   4.7129   4.9269   5.6552   6.4564   7.4446   8.2357   8.8295
     9.5001  10.0918  10.1609  11.3570

          k = 0.0000 0.0962 0.0000 ( 11547 PWs)   bands (ev):

   -74.8186 -48.3493 -48.3488 -48.3234 -48.3232 -48.3150 -39.0873 -38.8846
   -38.8666 -15.6091 -14.3267  -7.1117  -3.8163  -3.3642  -3.2042  -1.8597
    -1.8199  -1.2207   1.8756   2.1721   2.2350   2.5215   3.5479   4.0017
     4.2147   4.8343   5.1686   5.8496   6.5634   7.5553   8.6285   8.9387
     9.2014  10.1735  10.4195  11.1211

          k = 0.0000 0.1443 0.0000 ( 11539 PWs)   bands (ev):

   -74.8172 -48.3493 -48.3482 -48.3236 -48.3233 -48.3147 -39.0822 -38.9124
   -38.8731 -15.4654 -14.2541  -6.9336  -4.1245  -3.5226  -3.1389  -2.0571
    -1.9504  -1.2595   1.4836   2.0970   2.1003   2.7168   3.7379   4.1791
     4.4077   5.0167   5.4568   6.1929   6.7385   7.7436   8.7781   9.0292
     9.2302  10.3099  10.5935  10.8125

          k = 0.0000 0.1925 0.0000 ( 11519 PWs)   bands (ev):

   -74.8154 -48.3492 -48.3474 -48.3239 -48.3234 -48.3143 -39.0755 -38.9483
   -38.8815 -15.2707 -14.1565  -6.7020  -4.4867  -3.7657  -3.1026  -2.2978
    -2.0445  -1.3666   1.1605   1.9536   2.1026   2.9347   3.9832   4.4242
     4.6479   5.2608   5.7268   6.5852   6.9684   8.0324   8.5410   8.9815
     9.4284  10.4782  10.6397  11.2866

          k = 0.0000 0.2406 0.0000 ( 11493 PWs)   bands (ev):

   -74.8132 -48.3493 -48.3465 -48.3242 -48.3235 -48.3139 -39.0677 -38.9899
   -38.8913 -15.0317 -14.0379  -6.4432  -4.8680  -4.0899  -3.1419  -2.5514
    -2.0460  -1.5457   0.9761   1.8253   2.2000   3.1442   4.2840   4.7355
     4.9348   5.5631   5.9772   6.8486   7.2200   8.3476   8.4519   8.6163
     9.6638  10.6506  10.9837  11.5660

          k = 0.0000 0.2887 0.0000 ( 11487 PWs)   bands (ev):

   -74.8109 -48.3494 -48.3455 -48.3246 -48.3236 -48.3134 -39.0594 -39.0341
   -38.9018 -14.7575 -13.9042  -6.2198  -5.2105  -4.4813  -3.2574  -2.7809
    -1.9557  -1.7646   0.9486   1.7423   2.3665   3.3251   4.6329   5.1098
     5.2607   5.9131   6.1690   6.9448   7.4367   8.1210   8.4015   8.9350
     9.9282  10.7912  11.1040  11.4416

          k = 0.0000 0.3368 0.0000 ( 11505 PWs)   bands (ev):

   -74.8086 -48.3494 -48.3446 -48.3250 -48.3237 -48.3129 -39.0785 -39.0506
   -38.9123 -14.4604 -13.7627  -6.1930  -5.3770  -4.9025  -3.4080  -2.9624
    -1.9610  -1.8237   1.0524   1.7246   2.5658   3.4675   5.0053   5.5383
     5.5971   6.1936   6.3047   7.0494   7.3855   8.1825   8.3865   9.2966
    10.0764  10.8393  11.0937  11.6305

          k = 0.0000 0.3849 0.0000 ( 11471 PWs)   bands (ev):

   -74.8065 -48.3494 -48.3437 -48.3253 -48.3238 -48.3124 -39.1191 -39.0429
   -38.9220 -14.1571 -13.6228  -6.4397  -5.4040  -5.2207  -3.5581  -3.0907
    -2.0733  -1.6960   1.2476   1.7795   2.7598   3.5701   5.2947   5.7956
     6.0094   6.2383   6.6302   7.2146   7.3652   8.3925   8.5583   9.4998
    10.0159  10.9001  11.1387  11.9092

          k = 0.0000 0.4330 0.0000 ( 11465 PWs)   bands (ev):

   -74.8046 -48.3494 -48.3430 -48.3256 -48.3238 -48.3120 -39.1538 -39.0361
   -38.9303 -13.8699 -13.4953  -6.7711  -5.7128  -5.1702  -3.6876  -3.1724
    -2.0716  -1.5970   1.4974   1.8942   2.9150   3.6372   5.1691   5.9425
     6.3386   6.6263   6.9046   7.4950   7.6324   8.5700   8.8313   9.5116
     9.9941  10.9308  11.0087  11.3034

          k = 0.0000 0.4811 0.0000 ( 11462 PWs)   bands (ev):

   -74.8032 -48.3494 -48.3424 -48.3259 -48.3239 -48.3116 -39.1803 -39.0310
   -38.9367 -13.6276 -13.3922  -7.0720  -5.9825  -5.1219  -3.7857  -3.2205
    -1.9806  -1.5326   1.7658   2.0338   3.0085   3.6759   4.7751   6.1353
     6.4748   7.1461   7.3455   7.8866   8.0138   8.6237   9.0674   9.6615
    10.0179  10.4485  10.5681  10.8475

          k = 0.0000 0.5292 0.0000 ( 11460 PWs)   bands (ev):

   -74.8023 -48.3494 -48.3420 -48.3260 -48.3239 -48.3114 -39.1969 -39.0277
   -38.9408 -13.4628 -13.3247  -7.2809  -6.1519  -5.1084  -3.8465  -3.2458
    -1.8732  -1.4984   2.0003   2.1487   3.0372   3.6943   4.4248   6.2947
     6.5419   7.4561   7.9433   8.2026   8.4517   8.8468   9.1961   9.5471
     9.9000  10.0099  10.2701  10.2840

          k = 0.0000-0.5774 0.0000 ( 11424 PWs)   bands (ev):

   -74.8020 -48.3494 -48.3419 -48.3260 -48.3239 -48.3113 -39.2026 -39.0266
   -38.9421 -13.4041 -13.3010  -7.3559  -6.2094  -5.1073  -3.8671  -3.2537
    -1.8266  -1.4879   2.1034   2.1934   3.0338   3.6995   4.2849   6.3786
     6.5537   7.4679   8.4042   8.5270   8.7574   8.8379   9.1462   9.3443
     9.5559   9.6380  10.1645  10.3715

          k = 0.0417 0.0722 0.0000 ( 11559 PWs)   bands (ev):

   -74.8189 -48.3493 -48.3489 -48.3233 -48.3233 -48.3151 -39.0884 -38.8788
   -38.8654 -15.6383 -14.3415  -7.1484  -3.7456  -3.3414  -3.2168  -1.8337
    -1.7709  -1.2176   1.9855   2.1817   2.2732   2.4793   3.5063   3.9658
     4.1715   4.7959   5.0947   5.7826   6.5279   7.5187   8.5162   8.9012
     9.2877  10.1425  10.3289  11.2939

          k = 0.0417 0.1203 0.0000 ( 11549 PWs)   bands (ev):

   -74.8178 -48.3493 -48.3484 -48.3235 -48.3233 -48.3148 -39.0842 -38.9012
   -38.8709 -15.5224 -14.2829  -7.0034  -4.0027  -3.4652  -3.1555  -2.0323
    -1.8601  -1.2319   1.6285   2.0863   2.1521   2.6514   3.6662   4.1088
     4.3355   4.9454   5.3602   6.0590   6.6697   7.6679   8.8780   8.9848
     9.1257  10.2522  10.6133  10.7300

          k = 0.0417 0.1684 0.0000 ( 11516 PWs)   bands (ev):

   -74.8161 -48.3492 -48.3477 -48.3238 -48.3234 -48.3145 -39.0783 -38.9327
   -38.8786 -15.3532 -14.1977  -6.7972  -4.3318  -3.6617  -3.1154  -2.2628
    -1.9634  -1.2986   1.2804   1.9882   2.0622   2.8628   3.8834   4.3202
     4.5508   5.1582   5.6329   6.4470   6.8760   7.9055   8.6672   9.1034
     9.3834  10.4056  10.4432  10.9661

          k = 0.0417 0.2165 0.0000 ( 11508 PWs)   bands (ev):

   -74.8141 -48.3493 -48.3469 -48.3241 -48.3235 -48.3141 -39.0710 -38.9711
   -38.8881 -15.1362 -14.0894  -6.5479  -4.7007  -3.9316  -3.1640  -2.4557
    -2.0486  -1.4303   1.0297   1.8531   2.1086   3.0779   4.1579   4.5988
     4.8154   5.4321   5.8954   6.7890   7.1209   8.2531   8.4844   8.8551
     9.5501  10.5687  10.7648  11.2550

          k = 0.0417 0.2646 0.0000 ( 11499 PWs)   bands (ev):

   -74.8119 -48.3493 -48.3460 -48.3244 -48.3236 -48.3136 -39.0630 -39.0136
   -38.8987 -14.8792 -13.9630  -6.2942  -5.0674  -4.2787  -3.3136  -2.6081
    -2.0785  -1.5950   0.9210   1.7581   2.2408   3.2711   4.4862   4.9422
     5.1262   5.7605   6.1346   6.9464   7.3746   8.3134   8.4576   8.7645
     9.8061  10.7290  11.0498  11.3020

          k = 0.0417 0.3127 0.0000 ( 11496 PWs)   bands (ev):

   -74.8096 -48.3493 -48.3451 -48.3248 -48.3237 -48.3131 -39.0587 -39.0531
   -38.9096 -14.5930 -13.8250  -6.1424  -5.3379  -4.6861  -3.4859  -2.7651
    -2.1098  -1.6893   0.9495   1.7314   2.4268   3.4260   4.8559   5.3459
     5.4698   6.1247   6.2700   7.0045   7.5069   8.1452   8.4207   9.1675
    10.0310  10.8133  11.1227  11.3746

          k = 0.0417 0.3608 0.0000 ( 11480 PWs)   bands (ev):

   -74.8074 -48.3493 -48.3442 -48.3252 -48.3238 -48.3126 -39.0994 -39.0462
   -38.9201 -14.2918 -13.6836  -6.2736  -5.3706  -5.0948  -3.6330  -2.9184
    -2.1928  -1.6544   1.0847   1.7836   2.6315   3.5339   5.2246   5.7665
     5.8153   6.2126   6.5155   7.1560   7.4111   8.3481   8.4650   9.4602
    10.0572  10.8582  11.0414  11.5900

          k = 0.0417 0.4090 0.0000 ( 11462 PWs)   bands (ev):

   -74.8054 -48.3493 -48.3433 -48.3255 -48.3238 -48.3122 -39.1367 -39.0390
   -38.9296 -13.9949 -13.5490  -6.5850  -5.5469  -5.1992  -3.7459  -3.0474
    -2.2322  -1.5756   1.2957   1.9028   2.8227   3.5914   5.3649   5.8792
     6.2480   6.4184   6.8220   7.3770   7.5237   8.5300   8.7368   9.5215
    10.0178  10.6846  11.2216  11.3317

          k = 0.0417 0.4571 0.0000 ( 11460 PWs)   bands (ev):

   -74.8038 -48.3493 -48.3427 -48.3258 -48.3239 -48.3118 -39.1670 -39.0330
   -38.9372 -13.7277 -13.4327  -6.9076  -5.8576  -5.1292  -3.8270  -3.1434
    -2.1873  -1.5023   1.5537   2.0542   2.9731   3.6026   5.0328   6.0862
     6.5130   6.9217   7.1568   7.7288   7.8599   8.6573   8.9717   9.5522
     9.9875  10.5348  10.8871  11.1966

          k = 0.0417 0.5052 0.0000 ( 11462 PWs)   bands (ev):

   -74.8026 -48.3493 -48.3422 -48.3259 -48.3240 -48.3115 -39.1884 -39.0288
   -38.9427 -13.5214 -13.3464  -7.1659  -6.0811  -5.1005  -3.8798  -3.2063
    -2.0991  -1.4434   1.8178   2.1921   3.0594   3.5871   4.6230   6.2913
     6.6493   7.4054   7.6617   8.0804   8.2705   8.7116   9.1748   9.7412
     9.9224  10.1294  10.2917  10.5683

          k = 0.0417 0.5533 0.0000 ( 11466 PWs)   bands (ev):

   -74.8020 -48.3493 -48.3420 -48.3260 -48.3240 -48.3114 -39.1994 -39.0266
   -38.9455 -13.4077 -13.3002  -7.3100  -6.1962  -5.0960  -3.9060  -3.2374
    -2.0349  -1.4063   2.0072   2.2749   3.0752   3.5771   4.3561   6.4546
     6.6997   7.5275   8.2936   8.3954   8.6630   9.0316   9.1883   9.2647
     9.6806   9.7847  10.0378  10.4015

          k = 0.0833 0.1443 0.0000 ( 11513 PWs)   bands (ev):

   -74.8164 -48.3492 -48.3479 -48.3237 -48.3234 -48.3145 -39.0792 -38.9270
   -38.8780 -15.3809 -14.2116  -6.8294  -4.2719  -3.6333  -3.1188  -2.2820
    -1.9091  -1.2680   1.3351   1.9804   2.0409   2.8454   3.8517   4.2859
     4.5194   5.1242   5.6040   6.3985   6.8452   7.8655   8.7514   9.1350
     9.3982  10.3282  10.3767  10.8133

          k = 0.0833 0.1925 0.0000 ( 11503 PWs)   bands (ev):

   -74.8146 -48.3491 -48.3472 -48.3240 -48.3235 -48.3142 -39.0728 -38.9603
   -38.8875 -15.1892 -14.1157  -6.6015  -4.5991  -3.8459  -3.2010  -2.4686
    -1.9912  -1.3474   1.0726   1.8440   2.0241   3.0591   4.0992   4.5314
     4.7592   5.3674   5.8644   6.7653   7.0756   8.1687   8.5765   9.1863
     9.4746  10.3816  10.5259  10.9776

          k = 0.0833 0.2406 0.0000 ( 11513 PWs)   bands (ev):

   -74.8125 -48.3492 -48.3464 -48.3243 -48.3235 -48.3138 -39.0652 -38.9987
   -38.8986 -14.9540 -13.9992  -6.3440  -4.9524  -4.1135  -3.4383  -2.5220
    -2.1151  -1.4557   0.8999   1.7476   2.1019   3.2593   4.4046   4.8431
     5.0511   5.6699   6.1316   7.0025   7.3257   8.4415   8.6273   8.8139
     9.6845  10.5979  10.7755  11.1391

          k = 0.0833 0.2887 0.0000 ( 11509 PWs)   bands (ev):

   -74.8103 -48.3491 -48.3455 -48.3247 -48.3237 -48.3133 -39.0574 -39.0394
   -38.9106 -14.6843 -13.8679  -6.1189  -5.2716  -4.4672  -3.6788  -2.5642
    -2.2707  -1.5366   0.8425   1.7344   2.2507   3.4241   4.7614   5.2177
     5.3895   6.0219   6.3587   7.0408   7.5813   8.3693   8.5112   9.0987
     9.9153  10.7821  10.9442  11.1682

          k = 0.0833 0.3368 0.0000 ( 11485 PWs)   bands (ev):

   -74.8081 -48.3491 -48.3446 -48.3250 -48.3238 -48.3128 -39.0806 -39.0487
   -38.9225 -14.3924 -13.7288  -6.1086  -5.3941  -4.8835  -3.8435  -2.6737
    -2.4218  -1.5498   0.8985   1.8129   2.4409   3.5382   5.1532   5.6480
     5.7570   6.3380   6.4419   7.1146   7.6617   8.3522   8.5332   9.4452
    10.0538  10.7339  11.0285  11.2725

          k = 0.0833 0.3849 0.0000 ( 11486 PWs)   bands (ev):

   -74.8060 -48.3491 -48.3438 -48.3253 -48.3239 -48.3123 -39.1181 -39.0412
   -38.9337 -14.0950 -13.5913  -6.3699  -5.3838  -5.2027  -3.9432  -2.8259
    -2.5227  -1.5148   1.0558   1.9610   2.6430   3.5899   5.5096   5.9504
     6.1313   6.3078   6.8054   7.3584   7.6301   8.5725   8.6860   9.5966
    10.0596  10.3703  11.1934  11.3468

          k = 0.0833 0.4330 0.0000 ( 11477 PWs)   bands (ev):

   -74.8043 -48.3491 -48.3431 -48.3256 -48.3240 -48.3119 -39.1502 -39.0348
   -38.9432 -13.8141 -13.4660  -6.6924  -5.7065  -5.1297  -3.9954  -2.9767
    -2.5458  -1.4589   1.2932   2.1363   2.8357   3.5714   5.3792   6.0584
     6.5551   6.7430   7.1509   7.6574   7.8289   8.7619   8.9390   9.4745
     9.9851  10.2825  11.1808  11.3982

          k = 0.0833 0.4811 0.0000 ( 11466 PWs)   bands (ev):

   -74.8029 -48.3490 -48.3426 -48.3258 -48.3240 -48.3116 -39.1748 -39.0298
   -38.9505 -13.5777 -13.3645  -6.9792  -5.9841  -5.0763  -4.0141  -3.1027
    -2.5057  -1.3921   1.5738   2.2909   3.0051   3.4855   4.9292   6.3382
     6.8704   7.3016   7.5444   8.0262   8.1855   8.7511   9.1753   9.4055
     9.9992  10.2667  10.5973  10.9443

          k = 0.0833 0.5292 0.0000 ( 11472 PWs)   bands (ev):

   -74.8020 -48.3491 -48.3423 -48.3259 -48.3241 -48.3114 -39.1901 -39.0266
   -38.9551 -13.4176 -13.2979  -7.1774  -6.1580  -5.0638  -4.0151  -3.1879
    -2.4535  -1.3296   1.8320   2.3897   3.1355   3.3629   4.5574   6.5907
     7.0525   7.6959   8.0561   8.3330   8.5743   8.8750   9.1977   9.5160
     9.7069   9.9993  10.1652  10.5037

          k = 0.0833 0.5774 0.0000 ( 11466 PWs)   bands (ev):

   -74.8018 -48.3490 -48.3421 -48.3260 -48.3241 -48.3114 -39.1954 -39.0255
   -38.9567 -13.3607 -13.2745  -7.2484  -6.2169  -5.0636  -4.0134  -3.2183
    -2.4317  -1.3025   1.9482   2.4217   3.1904   3.2943   4.4119   6.7315
     7.0829   7.7167   8.4902   8.6315   8.8350   8.9273   9.1902   9.2742
     9.4923   9.6690  10.0079  10.4566

          k = 0.1250 0.2165 0.0000 ( 11497 PWs)   bands (ev):

   -74.8128 -48.3490 -48.3465 -48.3243 -48.3236 -48.3138 -39.0660 -38.9932
   -38.8991 -14.9792 -14.0114  -6.3612  -4.9071  -4.0447  -3.4959  -2.5311
    -2.0914  -1.4030   0.8931   1.7380   2.0410   3.2598   4.3785   4.8105
     5.0267   5.6400   6.1316   7.0361   7.3095   8.4570   8.6368   9.0824
     9.5711  10.4215  10.6583  11.0667

          k = 0.1250 0.2646 0.0000 ( 11513 PWs)   bands (ev):

   -74.8107 -48.3490 -48.3458 -48.3246 -48.3237 -48.3134 -39.0586 -39.0291
   -38.9125 -14.7307 -13.8897  -6.1109  -5.2204  -4.2908  -3.8465  -2.5547
    -2.2613  -1.4505   0.7773   1.7293   2.1283   3.4343   4.7147   5.1544
     5.3477   5.9692   6.4064   7.1217   7.5782   8.5427   8.7803   9.0978
     9.7425  10.5075  10.8282  11.1626

          k = 0.1250 0.3127 0.0000 ( 11507 PWs)   bands (ev):

   -74.8086 -48.3489 -48.3450 -48.3249 -48.3238 -48.3129 -39.0665 -39.0502
   -38.9265 -14.4545 -13.7567  -5.9768  -5.4209  -4.6655  -4.0629  -2.6506
    -2.4479  -1.4747   0.7615   1.8280   2.2697   3.5642   5.0996   5.5588
     5.7150   6.3414   6.5606   7.1150   7.8401   8.5619   8.6552   9.4984
     9.9094  10.6114  10.8176  11.0677

          k = 0.1250 0.3608 0.0000 ( 11500 PWs)   bands (ev):

   -74.8065 -48.3489 -48.3443 -48.3252 -48.3239 -48.3125 -39.1015 -39.0429
   -38.9402 -14.1647 -13.6204  -6.1575  -5.3438  -5.0878  -4.1614  -2.8060
    -2.6194  -1.4719   0.8628   2.0046   2.4371   3.6383   5.5133   6.0075
     6.0993   6.3593   6.7629   7.3331   7.9378   8.6434   8.7490   9.6963
    10.0143  10.1553  11.1185  11.2834

          k = 0.1250 0.4090 0.0000 ( 11472 PWs)   bands (ev):

   -74.8046 -48.3487 -48.3436 -48.3254 -48.3240 -48.3121 -39.1328 -39.0361
   -38.9525 -13.8803 -13.4906  -6.4581  -5.5398  -5.1370  -4.1997  -2.9237
    -2.7946  -1.4422   1.0683   2.2082   2.6061   3.6493   5.7371   6.0411
     6.5034   6.6230   7.1757   7.6567   8.0093   8.7956   8.9824   9.4842
     9.9555  10.1929  11.3354  11.3842

          k = 0.1250 0.4571 0.0000 ( 11464 PWs)   bands (ev):

   -74.8031 -48.3486 -48.3430 -48.3257 -48.3241 -48.3117 -39.1582 -39.0305
   -38.9625 -13.6259 -13.3784  -6.7471  -5.8674  -5.0454  -4.1965  -2.9830
    -2.9465  -1.3821   1.3407   2.3802   2.7631   3.5969   5.2908   6.3762
     6.9443   7.1664   7.5957   7.9922   8.2550   8.8848   9.0749   9.3512
     9.9941  10.3146  11.0627  11.3753

          k = 0.1250 0.5052 0.0000 ( 11455 PWs)   bands (ev):

   -74.8020 -48.3486 -48.3426 -48.3258 -48.3242 -48.3115 -39.1761 -39.0266
   -38.9696 -13.4308 -13.2949  -6.9748  -6.0997  -5.0164  -4.1678  -3.1130
    -2.9480  -1.3025   1.6231   2.4795   2.8963   3.4988   4.8488   6.7063
     7.3186   7.7648   8.0424   8.3195   8.4847   8.8204   9.1327   9.4703
    10.0823  10.2770  10.4177  10.7572

          k = 0.1250 0.5533 0.0000 ( 11460 PWs)   bands (ev):

   -74.8015 -48.3486 -48.3425 -48.3259 -48.3242 -48.3113 -39.1854 -39.0246
   -38.9733 -13.3243 -13.2498  -7.1014  -6.2187  -5.0160  -4.1411  -3.1957
    -2.9315  -1.2422   1.8235   2.5120   2.9758   3.4097   4.5831   6.9765
     7.5012   8.0986   8.3730   8.5914   8.7726   8.9470   9.2649   9.4415
     9.6410   9.8881  10.1841  10.5773

          k = 0.1667 0.2887 0.0000 ( 11495 PWs)   bands (ev):

   -74.8087 -48.3488 -48.3452 -48.3248 -48.3238 -48.3130 -39.0613 -39.0505
   -38.9284 -14.4755 -13.7660  -5.9234  -5.4341  -4.5382  -4.1892  -2.7199
    -2.3829  -1.4481   0.7116   1.8313   2.2024   3.5770   5.0803   5.5292
     5.6974   6.3230   6.6272   7.1339   7.8706   8.7120   8.7711   9.5764
     9.7474  10.5533  10.6051  11.0826

          k = 0.1667 0.3368 0.0000 ( 11503 PWs)   bands (ev):

   -74.8067 -48.3487 -48.3446 -48.3251 -48.3240 -48.3125 -39.0912 -39.0437
   -38.9452 -14.2005 -13.6352  -6.0067  -5.3823  -4.9421  -4.3229  -2.9804
    -2.4983  -1.4530   0.7571   2.0241   2.3074   3.6782   5.4926   5.9609
     6.0895   6.5250   6.7266   7.3205   8.1340   8.7722   8.8586   9.6340
     9.9674  10.1789  10.8482  11.3108

          k = 0.1667 0.3849 0.0000 ( 11496 PWs)   bands (ev):

   -74.8049 -48.3485 -48.3440 -48.3253 -48.3241 -48.3122 -39.1188 -39.0369
   -38.9613 -13.9219 -13.5057  -6.2581  -5.3880  -5.1649  -4.3616  -3.2215
    -2.6561  -1.4438   0.9194   2.2526   2.4175   3.7366   5.9147   6.1427
     6.4454   6.5569   7.1551   7.6499   8.2893   8.7262   8.9973   9.5500
    10.0082  10.3194  11.2318  11.4775

          k = 0.1667 0.4330 0.0000 ( 11476 PWs)   bands (ev):

   -74.8033 -48.3483 -48.3435 -48.3255 -48.3242 -48.3118 -39.1422 -39.0311
   -38.9755 -13.6610 -13.3877  -6.5159  -5.7497  -5.0236  -4.3570  -3.3807
    -2.8415  -1.3957   1.1622   2.4295   2.5364   3.7549   5.6362   6.3999
     6.9040   7.0686   7.6068   7.9233   8.4775   8.6298   9.2252   9.6469
    10.0694  10.4324  11.3522  11.5000

          k = 0.1667 0.4811 0.0000 ( 11462 PWs)   bands (ev):

   -74.8020 -48.3481 -48.3431 -48.3257 -48.3243 -48.3115 -39.1598 -39.0266
   -38.9865 -13.4439 -13.2919  -6.7366  -6.0319  -4.9630  -4.3196  -3.4485
    -3.0221  -1.3065   1.4299   2.4840   2.6756   3.7397   5.1719   6.7856
     7.3310   7.6460   8.0525   8.1374   8.6689   8.8907   9.2392   9.7687
    10.2189  10.4702  10.8888  11.1947

          k = 0.1667 0.5292 0.0000 ( 11451 PWs)   bands (ev):

   -74.8013 -48.3480 -48.3429 -48.3258 -48.3244 -48.3113 -39.1708 -39.0238
   -38.9934 -13.2988 -13.2284  -6.8882  -6.2075  -4.9609  -4.2690  -3.4620
    -3.1606  -1.2119   1.6500   2.4812   2.7662   3.7032   4.8292   7.0880
     7.6794   8.0770   8.3819   8.6331   8.7384   9.2123   9.3545   9.7271
    10.0206  10.2744  10.5252  10.7430

          k = 0.1667 0.5774 0.0000 ( 11434 PWs)   bands (ev):

   -74.8010 -48.3480 -48.3428 -48.3258 -48.3244 -48.3113 -39.1746 -39.0228
   -38.9958 -13.2487 -13.2050  -6.9427  -6.2669  -4.9671  -4.2448  -3.4612
    -3.2145  -1.1703   1.7380   2.4724   2.7970   3.6800   4.7046   7.2246
     7.8641   8.0459   8.7143   8.9528   8.9854   9.2393   9.3515   9.5468
     9.8925   9.9478  10.3105  10.7021

          k = 0.2083 0.3608 0.0000 ( 11499 PWs)   bands (ev):

   -74.8049 -48.3483 -48.3442 -48.3253 -48.3241 -48.3122 -39.1133 -39.0372
   -38.9651 -13.9361 -13.5108  -6.1740  -5.3136  -5.1941  -4.4222  -3.3389
    -2.6035  -1.4473   0.8677   2.2659   2.3483   3.7715   5.9259   6.2460
     6.4215   6.5375   7.1413   7.6473   8.4028   8.6799   9.0097   9.5654
    10.0476  10.4859  11.0842  11.5773

          k = 0.2083 0.4090 0.0000 ( 11484 PWs)   bands (ev):

   -74.8033 -48.3480 -48.3438 -48.3254 -48.3243 -48.3118 -39.1316 -39.0314
   -38.9844 -13.6795 -13.3923  -6.3608  -5.6691  -5.0230  -4.4355  -3.6513
    -2.7658  -1.4111   1.0667   2.3657   2.4937   3.8544   5.8663   6.4171
     6.8601   7.0165   7.5890   7.8370   8.4651   8.6470   9.3198   9.8419
    10.2013  10.6871  11.3929  11.6519

          k = 0.2083 0.4571 0.0000 ( 11471 PWs)   bands (ev):

   -74.8020 -48.3476 -48.3436 -48.3256 -48.3244 -48.3116 -39.1455 -39.0266
   -39.0012 -13.4533 -13.2898  -6.5268  -5.9736  -4.9181  -4.4137  -3.8561
    -2.9534  -1.3211   1.2967   2.3590   2.6437   3.9327   5.4544   6.8376
     7.2114   7.5477   7.8465   8.0891   8.7894   8.9477   9.5552  10.1189
    10.3500  10.7367  11.3018  11.5360

          k = 0.2083 0.5052 0.0000 ( 11454 PWs)   bands (ev):

   -74.8011 -48.3474 -48.3434 -48.3257 -48.3245 -48.3113 -39.1547 -39.0233
   -39.0136 -13.2831 -13.2127  -6.6529  -6.1911  -4.9074  -4.3705  -3.9380
    -3.1261  -1.1988   1.4887   2.3280   2.7228   3.9919   5.0903   7.0182
     7.5419   7.9632   8.3243   8.6255   9.1370   9.3719   9.5474  10.1897
    10.4645  10.6828  10.8439  11.0928

          k = 0.2083 0.5533 0.0000 ( 11444 PWs)   bands (ev):

   -74.8006 -48.3473 -48.3432 -48.3257 -48.3246 -48.3112 -39.1593 -39.0217
   -39.0201 -13.1958 -13.1664  -6.7225  -6.3034  -4.9342  -4.3288  -3.9528
    -3.2354  -1.1069   1.5875   2.2993   2.7671   4.0090   4.8834   7.0461
     7.8309   8.2865   8.9505   9.1317   9.2199   9.5853   9.6954   9.8809
    10.1883  10.2635  10.7186  10.8604

          k = 0.2500 0.4330 0.0000 ( 11491 PWs)   bands (ev):

   -74.8020 -48.3475 -48.3437 -48.3256 -48.3245 -48.3116 -39.1395 -39.0266
   -39.0074 -13.4567 -13.2890  -6.4386  -5.9497  -4.9010  -4.4274  -4.0371
    -2.9267  -1.3286   1.2496   2.2989   2.6469   4.0059   5.5786   6.8593
     7.1238   7.5106   7.7753   8.0781   8.7857   8.9880   9.7056  10.2241
    10.4551  10.9363  11.4671  11.7394

          k = 0.2500 0.4811 0.0000 ( 11456 PWs)   bands (ev):

   -74.8010 -48.3470 -48.3437 -48.3256 -48.3247 -48.3114 -39.1428 -39.0276
   -39.0230 -13.2757 -13.2044  -6.4828  -6.1779  -4.8675  -4.4043  -4.2702
    -3.1025  -1.1948   1.3942   2.2200   2.7211   4.1732   5.2841   6.8265
     7.5065   7.9100   8.2789   8.5983   9.2780   9.3905   9.9736  10.4271
    10.7469  11.0062  11.1695  11.4877

          k = 0.2500 0.5292 0.0000 ( 11433 PWs)   bands (ev):

   -74.8004 -48.3466 -48.3437 -48.3256 -48.3247 -48.3112 -39.1433 -39.0420
   -39.0207 -13.1665 -13.1389  -6.4984  -6.3256  -4.9441  -4.4286  -4.2692
    -3.2469  -1.0589   1.4507   2.1535   2.7757   4.2926   5.0595   6.6895
     7.8854   8.3674   8.9486   9.1499   9.6737   9.7306  10.0082  10.4107
    10.6262  10.6854  11.0003  11.2660

          k = 0.2500 0.5774 0.0000 ( 11422 PWs)   bands (ev):

   -74.8002 -48.3465 -48.3437 -48.3256 -48.3248 -48.3112 -39.1430 -39.0474
   -39.0199 -13.1404 -13.1039  -6.5006  -6.3766  -4.9955  -4.4313  -4.2452
    -3.3053  -0.9993   1.4536   2.1281   2.8056   4.3269   4.9802   6.6429
     8.0241   8.6993   9.3488   9.4801   9.7288   9.8214  10.0496  10.1655
    10.3305  10.5931  10.8654  11.0330

          k = 0.2917 0.5052 0.0000 ( 11437 PWs)   bands (ev):

   -74.8003 -48.3463 -48.3440 -48.3255 -48.3248 -48.3112 -39.1353 -39.0519
   -39.0204 -13.1572 -13.1289  -6.3959  -6.3286  -4.9758  -4.5117  -4.3298
    -3.2502  -1.0404   1.3967   2.0995   2.7810   4.4086   5.1445   6.5198
     7.9217   8.3600   8.9364   9.1487   9.7550   9.8796  10.3140  10.4349
    10.9013  11.0582  11.2191  11.3668

          k = 0.2917 0.5533 0.0000 ( 11429 PWs)   bands (ev):

   -74.8000 -48.3458 -48.3443 -48.3254 -48.3250 -48.3112 -39.1269 -39.0691
   -39.0191 -13.1166 -13.0662  -6.4182  -6.3002  -5.1579  -4.5438  -4.2825
    -3.3477  -0.9258   1.3461   2.0307   2.8380   4.5459   5.0686   6.3329
     8.1323   8.9054   9.5377   9.6499   9.9207  10.1961  10.4291  10.5028
    10.5888  10.8321  10.9382  11.1489

          k = 0.3333 0.5774 0.0000 ( 11448 PWs)   bands (ev):

   -74.7998 -48.3454 -48.3447 -48.3254 -48.3251 -48.3112 -39.1143 -39.0853
   -39.0185 -13.1016 -13.0388  -6.4493  -6.1865  -5.3098  -4.5645  -4.2679
    -3.3883  -0.8682   1.2894   1.9870   2.8682   4.6458   5.0875   6.1807
     8.2124   9.3283   9.4939  10.1361  10.1373  10.3536  10.4796  10.5879
    10.6211  10.7753  10.9216  11.0526

     highest occupied, lowest unoccupied level (ev):    -0.8682    0.7116

!    total energy              =   -1228.50468351 Ry
     total all-electron energy =    -37944.595114 Ry
     estimated scf accuracy    <          9.2E-09 Ry

     The total energy is the sum of the following terms:
     one-electron contribution =   -2968.10879553 Ry
     hartree contribution      =    1481.67982303 Ry
     xc contribution           =     -73.70155525 Ry
     ewald contribution        =    1124.24065812 Ry
     one-center paw contrib.   =    -792.61481388 Ry

     convergence has been achieved in  19 iterations

     Writing all to output data dir ./work/WSSe.save/

     init_run     :      1.98s CPU      2.16s WALL (       1 calls)
     electrons    :    103.87s CPU    110.03s WALL (       1 calls)

     Called by init_run:
     wfcinit      :      1.32s CPU      1.45s WALL (       1 calls)
     potinit      :      0.14s CPU      0.16s WALL (       1 calls)
     hinit0       :      0.43s CPU      0.43s WALL (       1 calls)

     Called by electrons:
     c_bands      :     90.52s CPU     95.66s WALL (      20 calls)
     sum_band     :     10.80s CPU     11.76s WALL (      20 calls)
     v_of_rho     :      0.12s CPU      0.13s WALL (      20 calls)
     newd         :      1.39s CPU      1.42s WALL (      20 calls)
     PAW_pot      :      1.05s CPU      1.12s WALL (      20 calls)
     mix_rho      :      0.06s CPU      0.06s WALL (      20 calls)

     Called by c_bands:
     init_us_2    :      0.76s CPU      0.79s WALL (    2501 calls)
     init_us_2:cp :      0.76s CPU      0.78s WALL (    2501 calls)
     cegterg      :     87.55s CPU     92.67s WALL (    1220 calls)

     Called by *egterg:
     cdiaghg      :      6.65s CPU      6.80s WALL (    5323 calls)
     h_psi        :     44.21s CPU     48.93s WALL (    5445 calls)
     s_psi        :      5.64s CPU      5.72s WALL (    5445 calls)
     g_psi        :      0.22s CPU      0.22s WALL (    4164 calls)

     Called by h_psi:
     h_psi:calbec :      6.33s CPU      6.98s WALL (    5445 calls)
     vloc_psi     :     32.00s CPU     35.85s WALL (    5445 calls)
     add_vuspsi   :      5.53s CPU      5.74s WALL (    5445 calls)

     General routines
     calbec       :      8.56s CPU      9.45s WALL (    6665 calls)
     fft          :      0.31s CPU      0.31s WALL (     221 calls)
     ffts         :      0.01s CPU      0.01s WALL (      20 calls)
     fftw         :     35.37s CPU     39.54s WALL (  263296 calls)

     Parallel routines

     PWSCF        :   1m46.36s CPU   1m52.88s WALL


   This run was terminated on:  11:11:52  31Jan2023            

=------------------------------------------------------------------------------=
   JOB DONE.
=------------------------------------------------------------------------------=
