
     Program BANDS v.7.1 starts on 31Jan2023 at 11:13:18 

     This program is part of the open-source Quantum ESPRESSO suite
     for quantum simulation of materials; please cite
         "P. Giannozzi et al., J. Phys.:Condens. Matter 21 395502 (2009);
         "P. Giannozzi et al., J. Phys.:Condens. Matter 29 465901 (2017);
         "P. Giannozzi et al., J. Chem. Phys. 152 154105 (2020);
          URL http://www.quantum-espresso.org", 
     in publications or presentations arising from this work. More details at
     http://www.quantum-espresso.org/quote

     Parallel version (MPI), running on    12 processors

     MPI processes distributed on     1 nodes
     R & G space division:  proc/nbgrp/npool/nimage =      12
     126775 MiB available memory on the printing compute node when the environment starts


     Reading xml data from directory:

     ./work/WSSe.save/
     file W.pbe-spn-kjpaw_psl.1.0.0.UPF: wavefunction(s)  6S 5P 5D renormalized
     file S.pbe-n-kjpaw_psl.1.0.0.UPF: wavefunction(s)  3S 3P renormalized
     file Se.pbe-dn-kjpaw_psl.1.0.0.UPF: wavefunction(s)  4S 4P 3D renormalized

     IMPORTANT: XC functional enforced from input :
     Exchange-correlation= PBE
                           (   1   4   3   4   0   0   0)
     Any further DFT definition will be discarded
     Please, verify this is what you really want


     Parallelization info
     --------------------
     sticks:   dense  smooth     PW     G-vecs:    dense   smooth      PW
     Min          49      49     14                 7632     7632    1212
     Max          51      51     15                 7669     7669    1242
     Sum         595     595    169                91835    91835   14719

     Using Slab Decomposition


     Check: negative core charge=   -0.000001

     negative rho (up, down):  1.992E-03 0.000E+00
     Reading collected, re-writing distributed wavefunctions
     high-symmetry point:  0.0000 0.0000 0.0000   x coordinate   0.0000
     high-symmetry point:  0.5000-0.2887 0.0000   x coordinate   0.5774
     high-symmetry point:  0.6667 0.0000 0.0000   x coordinate   0.9107
     high-symmetry point:  0.0000 0.0000 0.0000   x coordinate   1.5774

     Plottable bands (eV) written to file WSSe.bands.gnu
     Bands written to file WSSe.bands

 **************************************************************************

                    xk=(   0.00000,   0.00000,   0.00000  )

     point group C_3v (3m)  
     there are  3 classes
     the character table:

       E     2C3   3s_v 
A_1    1.00  1.00  1.00
A_2    1.00  1.00 -1.00
E      2.00 -1.00  0.00

     the symmetry operations in each class and the name of the first element:

     E        1
                                                                 
     2C3      2    3
                                                                 
     3s_v     4    5    6
                                                                 

     Band symmetry, C_3v (3m)   point group:

     e(  1 -  1) =    -74.81966  eV     1   --> A_1  L_1       
     e(  2 -  3) =    -48.34932  eV     2   --> E    L_3       
     e(  4 -  5) =    -48.32326  eV     2   --> E    L_3       
     e(  6 -  6) =    -48.31539  eV     1   --> A_1  L_1       
     e(  7 -  7) =    -39.09152  eV     1   --> A_1  L_1       
     e(  8 -  9) =    -38.86104  eV     2   --> E    L_3       
     e( 10 - 10) =    -15.72675  eV     1   --> A_1  L_1       
     e( 11 - 11) =    -14.38640  eV     1   --> A_1  L_1       
     e( 12 - 12) =     -7.26053  eV     1   --> A_1  L_1       
     e( 13 - 13) =     -3.50669  eV     1   --> A_1  L_1       
     e( 14 - 15) =     -3.27683  eV     2   --> E    L_3       
     e( 16 - 17) =     -1.67302  eV     2   --> E    L_3       
     e( 18 - 18) =     -1.23265  eV     1   --> A_1  L_1       
     e( 19 - 20) =      2.31092  eV     2   --> E    L_3       
     e( 21 - 22) =      2.38708  eV     2   --> E    L_3       
     e( 23 - 23) =      3.35380  eV     1   --> A_1  L_1       
     e( 24 - 24) =      3.85948  eV     1   --> A_1  L_1       
     e( 25 - 25) =      4.02005  eV     1   --> A_1  L_1       
     e( 26 - 26) =      4.66721  eV     1   --> A_1  L_1       
     e( 27 - 27) =      4.84026  eV     1   --> A_1  L_1       
     e( 28 - 28) =      5.59790  eV     1   --> A_1  L_1       
     e( 29 - 29) =      6.42381  eV     1   --> A_1  L_1       
     e( 30 - 30) =      7.41019  eV     1   --> A_1  L_1       
     e( 31 - 31) =      8.07818  eV     1   --> A_1  L_1       
     e( 32 - 32) =      8.79707  eV     1   --> A_1  L_1       
     e( 33 - 33) =      9.63726  eV     1   --> A_1  L_1       
     e( 34 - 35) =     10.07089  eV     2   --> E    L_3       
     e( 36 - 36) =     11.26334  eV     1   --> A_1  L_1       

 **************************************************************************

 **************************************************************************

                    xk=(   0.01667,  -0.00962,   0.00000  )

     point group C_s (m)    
     there are  2 classes
     the character table:

       E     s    
A'     1.00  1.00
A''    1.00 -1.00

     the symmetry operations in each class and the name of the first element:

     E        1
                                                                 
     s        2
                                                                 

     Band symmetry, C_s (m)     point group:

     e(  1 -  1) =    -74.81961  eV     1   --> A'             
     e(  2 -  3) =    -48.34932  eV     2   --> A'             
     e(  2 -  3) =    -48.34932  eV     2   --> A''            
     e(  4 -  5) =    -48.32326  eV     2   --> A'             
     e(  4 -  5) =    -48.32326  eV     2   --> A''            
     e(  6 -  6) =    -48.31534  eV     1   --> A'             
     e(  7 -  7) =    -39.09134  eV     1   --> A'             
     e(  8 -  8) =    -38.86200  eV     1   --> A'             
     e(  9 -  9) =    -38.86126  eV     1   --> A''            
     e( 10 - 10) =    -15.72200  eV     1   --> A'             
     e( 11 - 11) =    -14.38398  eV     1   --> A'             
     e( 12 - 12) =     -7.25447  eV     1   --> A'             
     e( 13 - 13) =     -3.52171  eV     1   --> A'             
     e( 14 - 14) =     -3.27813  eV     1   --> A'             
     e( 15 - 15) =     -3.27363  eV     1   --> A''            
     e( 16 - 16) =     -1.68143  eV     1   --> A'             
     e( 17 - 17) =     -1.67968  eV     1   --> A''            
     e( 18 - 18) =     -1.23094  eV     1   --> A'             
     e( 19 - 19) =      2.30193  eV     1   --> A'             
     e( 20 - 20) =      2.31575  eV     1   --> A''            
     e( 21 - 21) =      2.36164  eV     1   --> A'             
     e( 22 - 22) =      2.38484  eV     1   --> A''            
     e( 23 - 23) =      3.36431  eV     1   --> A'             
     e( 24 - 24) =      3.86552  eV     1   --> A'             
     e( 25 - 25) =      4.02965  eV     1   --> A'             
     e( 26 - 26) =      4.67561  eV     1   --> A'             
     e( 27 - 27) =      4.85432  eV     1   --> A'             
     e( 28 - 28) =      5.60725  eV     1   --> A'             
     e( 29 - 29) =      6.42955  eV     1   --> A'             
     e( 30 - 30) =      7.41621  eV     1   --> A'             
     e( 31 - 31) =      8.10423  eV     1   --> A'             
     e( 32 - 32) =      8.80275  eV     1   --> A'             
     e( 33 - 33) =      9.61410  eV     1   --> A'             
     e( 34 - 34) =     10.07378  eV     1   --> A'             
     e( 35 - 35) =     10.08545  eV     1   --> A''            
     e( 36 - 36) =     11.28096  eV     1   --> A'             

 **************************************************************************

 **************************************************************************

                    xk=(   0.03333,  -0.01925,   0.00000  )

     Band symmetry, C_s (m)     point group:

     e(  1 -  1) =    -74.81946  eV     1   --> A'             
     e(  2 -  3) =    -48.34931  eV     2   --> A'             
     e(  2 -  3) =    -48.34931  eV     2   --> A''            
     e(  4 -  5) =    -48.32328  eV     2   --> A'             
     e(  4 -  5) =    -48.32328  eV     2   --> A''            
     e(  6 -  6) =    -48.31529  eV     1   --> A'             
     e(  7 -  7) =    -39.09081  eV     1   --> A'             
     e(  8 -  8) =    -38.86488  eV     1   --> A'             
     e(  9 -  9) =    -38.86193  eV     1   --> A''            
     e( 10 - 10) =    -15.70776  eV     1   --> A'             
     e( 11 - 11) =    -14.37675  eV     1   --> A'             
     e( 12 - 12) =     -7.23635  eV     1   --> A'             
     e( 13 - 13) =     -3.56447  eV     1   --> A'             
     e( 14 - 14) =     -3.28410  eV     1   --> A'             
     e( 15 - 15) =     -3.26415  eV     1   --> A''            
     e( 16 - 16) =     -1.70602  eV     1   --> A'             
     e( 17 - 17) =     -1.69926  eV     1   --> A''            
     e( 18 - 18) =     -1.22661  eV     1   --> A'             
     e( 19 - 19) =      2.26635  eV     1   --> A'             
     e( 20 - 20) =      2.29985  eV     1   --> A'             
     e( 21 - 21) =      2.32230  eV     1   --> A''            
     e( 22 - 22) =      2.38592  eV     1   --> A''            
     e( 23 - 23) =      3.39339  eV     1   --> A'             
     e( 24 - 24) =      3.88346  eV     1   --> A'             
     e( 25 - 25) =      4.05722  eV     1   --> A'             
     e( 26 - 26) =      4.69930  eV     1   --> A'             
     e( 27 - 27) =      4.89684  eV     1   --> A'             
     e( 28 - 28) =      5.63569  eV     1   --> A'             
     e( 29 - 29) =      6.44678  eV     1   --> A'             
     e( 30 - 30) =      7.43419  eV     1   --> A'             
     e( 31 - 31) =      8.18047  eV     1   --> A'             
     e( 32 - 32) =      8.81981  eV     1   --> A'             
     e( 33 - 33) =      9.54797  eV     1   --> A'             
     e( 34 - 34) =     10.08411  eV     1   --> A'             
     e( 35 - 35) =     10.12880  eV     1   --> A''            
     e( 36 - 36) =     11.32816  eV     1   --> A'             

 **************************************************************************

 **************************************************************************

                    xk=(   0.05000,  -0.02887,   0.00000  )

     Band symmetry, C_s (m)     point group:

     e(  1 -  1) =    -74.81922  eV     1   --> A'             
     e(  2 -  2) =    -48.34930  eV     1   --> A'             
     e(  3 -  3) =    -48.34913  eV     1   --> A''            
     e(  4 -  5) =    -48.32332  eV     2   --> A'             
     e(  4 -  5) =    -48.32332  eV     2   --> A''            
     e(  6 -  6) =    -48.31523  eV     1   --> A'             
     e(  7 -  7) =    -39.08993  eV     1   --> A'             
     e(  8 -  8) =    -38.86962  eV     1   --> A'             
     e(  9 -  9) =    -38.86303  eV     1   --> A''            
     e( 10 - 10) =    -15.68411  eV     1   --> A'             
     e( 11 - 11) =    -14.36474  eV     1   --> A'             
     e( 12 - 12) =     -7.20632  eV     1   --> A'             
     e( 13 - 13) =     -3.63036  eV     1   --> A'             
     e( 14 - 14) =     -3.29870  eV     1   --> A'             
     e( 15 - 15) =     -3.24885  eV     1   --> A''            
     e( 16 - 16) =     -1.74514  eV     1   --> A'             
     e( 17 - 17) =     -1.73055  eV     1   --> A''            
     e( 18 - 18) =     -1.22170  eV     1   --> A'             
     e( 19 - 19) =      2.16517  eV     1   --> A'             
     e( 20 - 20) =      2.25495  eV     1   --> A'             
     e( 21 - 21) =      2.30980  eV     1   --> A''            
     e( 22 - 22) =      2.41073  eV     1   --> A''            
     e( 23 - 23) =      3.43618  eV     1   --> A'             
     e( 24 - 24) =      3.91295  eV     1   --> A'             
     e( 25 - 25) =      4.09982  eV     1   --> A'             
     e( 26 - 26) =      4.73531  eV     1   --> A'             
     e( 27 - 27) =      4.96717  eV     1   --> A'             
     e( 28 - 28) =      5.68450  eV     1   --> A'             
     e( 29 - 29) =      6.47544  eV     1   --> A'             
     e( 30 - 30) =      7.46392  eV     1   --> A'             
     e( 31 - 31) =      8.30122  eV     1   --> A'             
     e( 32 - 32) =      8.84832  eV     1   --> A'             
     e( 33 - 33) =      9.44826  eV     1   --> A'             
     e( 34 - 34) =     10.10429  eV     1   --> A'             
     e( 35 - 35) =     10.20003  eV     1   --> A''            
     e( 36 - 36) =     11.38914  eV     1   --> A'             

 **************************************************************************

 **************************************************************************

                    xk=(   0.06667,  -0.03849,   0.00000  )

     Band symmetry, C_s (m)     point group:

     e(  1 -  1) =    -74.81889  eV     1   --> A'             
     e(  2 -  2) =    -48.34930  eV     1   --> A'             
     e(  3 -  3) =    -48.34900  eV     1   --> A''            
     e(  4 -  4) =    -48.32338  eV     1   --> A'             
     e(  5 -  5) =    -48.32327  eV     1   --> A''            
     e(  6 -  6) =    -48.31516  eV     1   --> A'             
     e(  7 -  7) =    -39.08872  eV     1   --> A'             
     e(  8 -  8) =    -38.87620  eV     1   --> A'             
     e(  9 -  9) =    -38.86456  eV     1   --> A''            
     e( 10 - 10) =    -15.65116  eV     1   --> A'             
     e( 11 - 11) =    -14.34802  eV     1   --> A'             
     e( 12 - 12) =     -7.16463  eV     1   --> A'             
     e( 13 - 13) =     -3.71532  eV     1   --> A'             
     e( 14 - 14) =     -3.32488  eV     1   --> A'             
     e( 15 - 15) =     -3.22850  eV     1   --> A''            
     e( 16 - 16) =     -1.79690  eV     1   --> A'             
     e( 17 - 17) =     -1.77160  eV     1   --> A''            
     e( 18 - 18) =     -1.21880  eV     1   --> A'             
     e( 19 - 19) =      2.02847  eV     1   --> A'             
     e( 20 - 20) =      2.21361  eV     1   --> A'             
     e( 21 - 21) =      2.27811  eV     1   --> A''            
     e( 22 - 22) =      2.45882  eV     1   --> A''            
     e( 23 - 23) =      3.48905  eV     1   --> A'             
     e( 24 - 24) =      3.95367  eV     1   --> A'             
     e( 25 - 25) =      4.15413  eV     1   --> A'             
     e( 26 - 26) =      4.78154  eV     1   --> A'             
     e( 27 - 27) =      5.06104  eV     1   --> A'             
     e( 28 - 28) =      5.75570  eV     1   --> A'             
     e( 29 - 29) =      6.51544  eV     1   --> A'             
     e( 30 - 30) =      7.50524  eV     1   --> A'             
     e( 31 - 31) =      8.45643  eV     1   --> A'             
     e( 32 - 32) =      8.88863  eV     1   --> A'             
     e( 33 - 33) =      9.32791  eV     1   --> A'             
     e( 34 - 34) =     10.13500  eV     1   --> A'             
     e( 35 - 35) =     10.29762  eV     1   --> A''            
     e( 36 - 36) =     11.36424  eV     1   --> A'             

 **************************************************************************

 **************************************************************************

                    xk=(   0.08333,  -0.04811,   0.00000  )

     Band symmetry, C_s (m)     point group:

     e(  1 -  1) =    -74.81846  eV     1   --> A'             
     e(  2 -  2) =    -48.34929  eV     1   --> A'             
     e(  3 -  3) =    -48.34882  eV     1   --> A''            
     e(  4 -  4) =    -48.32341  eV     1   --> A'             
     e(  5 -  5) =    -48.32327  eV     1   --> A''            
     e(  6 -  6) =    -48.31507  eV     1   --> A'             
     e(  7 -  7) =    -39.08718  eV     1   --> A'             
     e(  8 -  8) =    -38.88451  eV     1   --> A'             
     e(  9 -  9) =    -38.86650  eV     1   --> A''            
     e( 10 - 10) =    -15.60907  eV     1   --> A'             
     e( 11 - 11) =    -14.32669  eV     1   --> A'             
     e( 12 - 12) =     -7.11166  eV     1   --> A'             
     e( 13 - 13) =     -3.81635  eV     1   --> A'             
     e( 14 - 14) =     -3.36420  eV     1   --> A'             
     e( 15 - 15) =     -3.20427  eV     1   --> A''            
     e( 16 - 16) =     -1.85967  eV     1   --> A'             
     e( 17 - 17) =     -1.81985  eV     1   --> A''            
     e( 18 - 18) =     -1.22048  eV     1   --> A'             
     e( 19 - 19) =      1.87578  eV     1   --> A'             
     e( 20 - 20) =      2.17221  eV     1   --> A'             
     e( 21 - 21) =      2.23522  eV     1   --> A''            
     e( 22 - 22) =      2.52154  eV     1   --> A''            
     e( 23 - 23) =      3.55045  eV     1   --> A'             
     e( 24 - 24) =      4.00546  eV     1   --> A'             
     e( 25 - 25) =      4.21773  eV     1   --> A'             
     e( 26 - 26) =      4.83739  eV     1   --> A'             
     e( 27 - 27) =      5.17050  eV     1   --> A'             
     e( 28 - 28) =      5.85149  eV     1   --> A'             
     e( 29 - 29) =      6.56664  eV     1   --> A'             
     e( 30 - 30) =      7.55826  eV     1   --> A'             
     e( 31 - 31) =      8.62873  eV     1   --> A'             
     e( 32 - 32) =      8.94162  eV     1   --> A'             
     e( 33 - 33) =      9.20223  eV     1   --> A'             
     e( 34 - 34) =     10.17556  eV     1   --> A'             
     e( 35 - 35) =     10.41953  eV     1   --> A''            
     e( 36 - 36) =     11.12118  eV     1   --> A'             

 **************************************************************************

 **************************************************************************

                    xk=(   0.10000,  -0.05774,   0.00000  )

     Band symmetry, C_s (m)     point group:

     e(  1 -  1) =    -74.81796  eV     1   --> A'             
     e(  2 -  2) =    -48.34930  eV     1   --> A'             
     e(  3 -  3) =    -48.34860  eV     1   --> A''            
     e(  4 -  4) =    -48.32350  eV     1   --> A'             
     e(  5 -  5) =    -48.32330  eV     1   --> A''            
     e(  6 -  6) =    -48.31496  eV     1   --> A'             
     e(  7 -  7) =    -39.08534  eV     1   --> A'             
     e(  8 -  8) =    -38.89448  eV     1   --> A'             
     e(  9 -  9) =    -38.86882  eV     1   --> A''            
     e( 10 - 10) =    -15.55807  eV     1   --> A'             
     e( 11 - 11) =    -14.30089  eV     1   --> A'             
     e( 12 - 12) =     -7.04791  eV     1   --> A'             
     e( 13 - 13) =     -3.93112  eV     1   --> A'             
     e( 14 - 14) =     -3.41722  eV     1   --> A'             
     e( 15 - 15) =     -3.17782  eV     1   --> A''            
     e( 16 - 16) =     -1.93222  eV     1   --> A'             
     e( 17 - 17) =     -1.87219  eV     1   --> A''            
     e( 18 - 18) =     -1.22909  eV     1   --> A'             
     e( 19 - 19) =      1.71688  eV     1   --> A'             
     e( 20 - 20) =      2.13518  eV     1   --> A'             
     e( 21 - 21) =      2.18486  eV     1   --> A''            
     e( 22 - 22) =      2.59453  eV     1   --> A''            
     e( 23 - 23) =      3.62009  eV     1   --> A'             
     e( 24 - 24) =      4.06823  eV     1   --> A'             
     e( 25 - 25) =      4.28931  eV     1   --> A'             
     e( 26 - 26) =      4.90294  eV     1   --> A'             
     e( 27 - 27) =      5.28658  eV     1   --> A'             
     e( 28 - 28) =      5.97268  eV     1   --> A'             
     e( 29 - 29) =      6.62883  eV     1   --> A'             
     e( 30 - 30) =      7.62341  eV     1   --> A'             
     e( 31 - 31) =      8.77969  eV     1   --> A'             
     e( 32 - 32) =      8.99904  eV     1   --> A'             
     e( 33 - 33) =      9.10930  eV     1   --> A'             
     e( 34 - 34) =     10.22480  eV     1   --> A'             
     e( 35 - 35) =     10.56319  eV     1   --> A''            
     e( 36 - 36) =     10.87560  eV     1   --> A'             

 **************************************************************************

 **************************************************************************

                    xk=(   0.11667,  -0.06736,   0.00000  )

     Band symmetry, C_s (m)     point group:

     e(  1 -  1) =    -74.81738  eV     1   --> A'             
     e(  2 -  2) =    -48.34930  eV     1   --> A'             
     e(  3 -  3) =    -48.34837  eV     1   --> A''            
     e(  4 -  4) =    -48.32361  eV     1   --> A'             
     e(  5 -  5) =    -48.32332  eV     1   --> A''            
     e(  6 -  6) =    -48.31483  eV     1   --> A'             
     e(  7 -  7) =    -39.08321  eV     1   --> A'             
     e(  8 -  8) =    -38.90597  eV     1   --> A'             
     e(  9 -  9) =    -38.87150  eV     1   --> A''            
     e( 10 - 10) =    -15.49839  eV     1   --> A'             
     e( 11 - 11) =    -14.27075  eV     1   --> A'             
     e( 12 - 12) =     -6.97406  eV     1   --> A'             
     e( 13 - 13) =     -4.05756  eV     1   --> A'             
     e( 14 - 14) =     -3.48402  eV     1   --> A'             
     e( 15 - 15) =     -3.15136  eV     1   --> A''            
     e( 16 - 16) =     -2.01353  eV     1   --> A'             
     e( 17 - 17) =     -1.92500  eV     1   --> A''            
     e( 18 - 18) =     -1.24662  eV     1   --> A'             
     e( 19 - 19) =      1.55963  eV     1   --> A'             
     e( 20 - 20) =      2.10689  eV     1   --> A'             
     e( 21 - 21) =      2.12944  eV     1   --> A''            
     e( 22 - 22) =      2.67478  eV     1   --> A''            
     e( 23 - 23) =      3.69821  eV     1   --> A'             
     e( 24 - 24) =      4.14193  eV     1   --> A'             
     e( 25 - 25) =      4.36841  eV     1   --> A'             
     e( 26 - 26) =      4.97836  eV     1   --> A'             
     e( 27 - 27) =      5.40240  eV     1   --> A'             
     e( 28 - 28) =      6.11638  eV     1   --> A'             
     e( 29 - 29) =      6.70160  eV     1   --> A'             
     e( 30 - 30) =      7.70171  eV     1   --> A'             
     e( 31 - 31) =      8.81504  eV     1   --> A'             
     e( 32 - 32) =      9.01187  eV     1   --> A'             
     e( 33 - 33) =      9.17190  eV     1   --> A'             
     e( 34 - 34) =     10.28148  eV     1   --> A'             
     e( 35 - 35) =     10.66961  eV     1   --> A'             
     e( 36 - 36) =     10.72552  eV     1   --> A''            

 **************************************************************************

 **************************************************************************

                    xk=(   0.13333,  -0.07698,   0.00000  )

     Band symmetry, C_s (m)     point group:

     e(  1 -  1) =    -74.81672  eV     1   --> A'             
     e(  2 -  2) =    -48.34927  eV     1   --> A'             
     e(  3 -  3) =    -48.34808  eV     1   --> A''            
     e(  4 -  4) =    -48.32370  eV     1   --> A'             
     e(  5 -  5) =    -48.32335  eV     1   --> A''            
     e(  6 -  6) =    -48.31469  eV     1   --> A'             
     e(  7 -  7) =    -39.08082  eV     1   --> A'             
     e(  8 -  8) =    -38.91885  eV     1   --> A'             
     e(  9 -  9) =    -38.87452  eV     1   --> A''            
     e( 10 - 10) =    -15.43036  eV     1   --> A'             
     e( 11 - 11) =    -14.23649  eV     1   --> A'             
     e( 12 - 12) =     -6.89098  eV     1   --> A'             
     e( 13 - 13) =     -4.19367  eV     1   --> A'             
     e( 14 - 14) =     -3.56447  eV     1   --> A'             
     e( 15 - 15) =     -3.12773  eV     1   --> A''            
     e( 16 - 16) =     -2.10255  eV     1   --> A'             
     e( 17 - 17) =     -1.97420  eV     1   --> A''            
     e( 18 - 18) =     -1.27467  eV     1   --> A'             
     e( 19 - 19) =      1.41077  eV     1   --> A'             
     e( 20 - 20) =      2.07111  eV     1   --> A''            
     e( 21 - 21) =      2.09079  eV     1   --> A'             
     e( 22 - 22) =      2.75973  eV     1   --> A''            
     e( 23 - 23) =      3.78510  eV     1   --> A'             
     e( 24 - 24) =      4.22649  eV     1   --> A'             
     e( 25 - 25) =      4.45501  eV     1   --> A'             
     e( 26 - 26) =      5.06373  eV     1   --> A'             
     e( 27 - 27) =      5.51481  eV     1   --> A'             
     e( 28 - 28) =      6.27472  eV     1   --> A'             
     e( 29 - 29) =      6.78417  eV     1   --> A'             
     e( 30 - 30) =      7.79487  eV     1   --> A'             
     e( 31 - 31) =      8.73035  eV     1   --> A'             
     e( 32 - 32) =      9.05107  eV     1   --> A'             
     e( 33 - 33) =      9.28562  eV     1   --> A'             
     e( 34 - 34) =     10.34441  eV     1   --> A'             
     e( 35 - 35) =     10.54329  eV     1   --> A'             
     e( 36 - 36) =     10.90299  eV     1   --> A''            

 **************************************************************************

 **************************************************************************

                    xk=(   0.15000,  -0.08660,   0.00000  )

     Band symmetry, C_s (m)     point group:

     e(  1 -  1) =    -74.81600  eV     1   --> A'             
     e(  2 -  2) =    -48.34924  eV     1   --> A'             
     e(  3 -  3) =    -48.34776  eV     1   --> A''            
     e(  4 -  4) =    -48.32382  eV     1   --> A'             
     e(  5 -  5) =    -48.32338  eV     1   --> A''            
     e(  6 -  6) =    -48.31452  eV     1   --> A'             
     e(  7 -  7) =    -39.07819  eV     1   --> A'             
     e(  8 -  8) =    -38.93297  eV     1   --> A'             
     e(  9 -  9) =    -38.87782  eV     1   --> A''            
     e( 10 - 10) =    -15.35432  eV     1   --> A'             
     e( 11 - 11) =    -14.19831  eV     1   --> A'             
     e( 12 - 12) =     -6.79979  eV     1   --> A'             
     e( 13 - 13) =     -4.33744  eV     1   --> A'             
     e( 14 - 14) =     -3.65839  eV     1   --> A'             
     e( 15 - 15) =     -3.11033  eV     1   --> A''            
     e( 16 - 16) =     -2.19793  eV     1   --> A'             
     e( 17 - 17) =     -2.01543  eV     1   --> A''            
     e( 18 - 18) =     -1.31439  eV     1   --> A'             
     e( 19 - 19) =      1.27616  eV     1   --> A'             
     e( 20 - 20) =      2.01189  eV     1   --> A''            
     e( 21 - 21) =      2.08908  eV     1   --> A'             
     e( 22 - 22) =      2.84706  eV     1   --> A''            
     e( 23 - 23) =      3.88096  eV     1   --> A'             
     e( 24 - 24) =      4.32187  eV     1   --> A'             
     e( 25 - 25) =      4.54918  eV     1   --> A'             
     e( 26 - 26) =      5.15897  eV     1   --> A'             
     e( 27 - 27) =      5.62352  eV     1   --> A'             
     e( 28 - 28) =      6.43586  eV     1   --> A'             
     e( 29 - 29) =      6.87500  eV     1   --> A'             
     e( 30 - 30) =      7.90521  eV     1   --> A'             
     e( 31 - 31) =      8.62981  eV     1   --> A'             
     e( 32 - 32) =      9.05731  eV     1   --> A'             
     e( 33 - 33) =      9.36401  eV     1   --> A'             
     e( 34 - 34) =     10.41189  eV     1   --> A'             
     e( 35 - 35) =     10.53627  eV     1   --> A'             
     e( 36 - 36) =     11.09156  eV     1   --> A''            

 **************************************************************************

 **************************************************************************

                    xk=(   0.16667,  -0.09623,   0.00000  )

     Band symmetry, C_s (m)     point group:

     e(  1 -  1) =    -74.81522  eV     1   --> A'             
     e(  2 -  2) =    -48.34927  eV     1   --> A'             
     e(  3 -  3) =    -48.34744  eV     1   --> A''            
     e(  4 -  4) =    -48.32397  eV     1   --> A'             
     e(  5 -  5) =    -48.32343  eV     1   --> A''            
     e(  6 -  6) =    -48.31436  eV     1   --> A'             
     e(  7 -  7) =    -39.07535  eV     1   --> A'             
     e(  8 -  8) =    -38.94818  eV     1   --> A'             
     e(  9 -  9) =    -38.88140  eV     1   --> A''            
     e( 10 - 10) =    -15.27070  eV     1   --> A'             
     e( 11 - 11) =    -14.15647  eV     1   --> A'             
     e( 12 - 12) =     -6.70196  eV     1   --> A'             
     e( 13 - 13) =     -4.48675  eV     1   --> A'             
     e( 14 - 14) =     -3.76563  eV     1   --> A'             
     e( 15 - 15) =     -3.10270  eV     1   --> A''            
     e( 16 - 16) =     -2.29783  eV     1   --> A'             
     e( 17 - 17) =     -2.04443  eV     1   --> A''            
     e( 18 - 18) =     -1.36634  eV     1   --> A'             
     e( 19 - 19) =      1.16067  eV     1   --> A'             
     e( 20 - 20) =      1.95377  eV     1   --> A''            
     e( 21 - 21) =      2.10269  eV     1   --> A'             
     e( 22 - 22) =      2.93472  eV     1   --> A''            
     e( 23 - 23) =      3.98585  eV     1   --> A'             
     e( 24 - 24) =      4.42795  eV     1   --> A'             
     e( 25 - 25) =      4.65097  eV     1   --> A'             
     e( 26 - 26) =      5.26390  eV     1   --> A'             
     e( 27 - 27) =      5.72930  eV     1   --> A'             
     e( 28 - 28) =      6.58666  eV     1   --> A'             
     e( 29 - 29) =      6.97156  eV     1   --> A'             
     e( 30 - 30) =      8.03474  eV     1   --> A'             
     e( 31 - 31) =      8.54173  eV     1   --> A'             
     e( 32 - 32) =      8.98235  eV     1   --> A'             
     e( 33 - 33) =      9.43066  eV     1   --> A'             
     e( 34 - 34) =     10.48054  eV     1   --> A'             
     e( 35 - 35) =     10.63991  eV     1   --> A'             
     e( 36 - 36) =     11.28673  eV     1   --> A''            

 **************************************************************************

 **************************************************************************

                    xk=(   0.18333,  -0.10585,   0.00000  )

     Band symmetry, C_s (m)     point group:

     e(  1 -  1) =    -74.81439  eV     1   --> A'             
     e(  2 -  2) =    -48.34931  eV     1   --> A'             
     e(  3 -  3) =    -48.34707  eV     1   --> A''            
     e(  4 -  4) =    -48.32408  eV     1   --> A'             
     e(  5 -  5) =    -48.32348  eV     1   --> A''            
     e(  6 -  6) =    -48.31418  eV     1   --> A'             
     e(  7 -  7) =    -39.07234  eV     1   --> A'             
     e(  8 -  8) =    -38.96430  eV     1   --> A'             
     e(  9 -  9) =    -38.88518  eV     1   --> A''            
     e( 10 - 10) =    -15.17996  eV     1   --> A'             
     e( 11 - 11) =    -14.11128  eV     1   --> A'             
     e( 12 - 12) =     -6.59947  eV     1   --> A'             
     e( 13 - 13) =     -4.63927  eV     1   --> A'             
     e( 14 - 14) =     -3.88594  eV     1   --> A'             
     e( 15 - 15) =     -3.10782  eV     1   --> A''            
     e( 16 - 16) =     -2.39992  eV     1   --> A'             
     e( 17 - 17) =     -2.05785  eV     1   --> A''            
     e( 18 - 18) =     -1.43024  eV     1   --> A'             
     e( 19 - 19) =      1.06799  eV     1   --> A'             
     e( 20 - 20) =      1.89864  eV     1   --> A''            
     e( 21 - 21) =      2.13140  eV     1   --> A'             
     e( 22 - 22) =      3.02093  eV     1   --> A''            
     e( 23 - 23) =      4.09968  eV     1   --> A'             
     e( 24 - 24) =      4.54463  eV     1   --> A'             
     e( 25 - 25) =      4.76030  eV     1   --> A'             
     e( 26 - 26) =      5.37819  eV     1   --> A'             
     e( 27 - 27) =      5.83242  eV     1   --> A'             
     e( 28 - 28) =      6.71537  eV     1   --> A'             
     e( 29 - 29) =      7.07106  eV     1   --> A'             
     e( 30 - 30) =      8.18183  eV     1   --> A'             
     e( 31 - 31) =      8.47418  eV     1   --> A'             
     e( 32 - 32) =      8.83809  eV     1   --> A'             
     e( 33 - 33) =      9.51484  eV     1   --> A'             
     e( 34 - 34) =     10.54973  eV     1   --> A'             
     e( 35 - 35) =     10.79195  eV     1   --> A'             
     e( 36 - 36) =     11.48354  eV     1   --> A''            

 **************************************************************************

 **************************************************************************

                    xk=(   0.20000,  -0.11547,   0.00000  )

     Band symmetry, C_s (m)     point group:

     e(  1 -  1) =    -74.81352  eV     1   --> A'             
     e(  2 -  2) =    -48.34935  eV     1   --> A'             
     e(  3 -  3) =    -48.34669  eV     1   --> A''            
     e(  4 -  4) =    -48.32420  eV     1   --> A'             
     e(  5 -  5) =    -48.32351  eV     1   --> A''            
     e(  6 -  6) =    -48.31399  eV     1   --> A'             
     e(  7 -  7) =    -39.06917  eV     1   --> A'             
     e(  8 -  8) =    -38.98113  eV     1   --> A'             
     e(  9 -  9) =    -38.88915  eV     1   --> A''            
     e( 10 - 10) =    -15.08264  eV     1   --> A'             
     e( 11 - 11) =    -14.06306  eV     1   --> A'             
     e( 12 - 12) =     -6.49500  eV     1   --> A'             
     e( 13 - 13) =     -4.79229  eV     1   --> A'             
     e( 14 - 14) =     -4.01887  eV     1   --> A'             
     e( 15 - 15) =     -3.12712  eV     1   --> A''            
     e( 16 - 16) =     -2.50163  eV     1   --> A'             
     e( 17 - 17) =     -2.05413  eV     1   --> A''            
     e( 18 - 18) =     -1.50485  eV     1   --> A'             
     e( 19 - 19) =      1.00038  eV     1   --> A'             
     e( 20 - 20) =      1.84833  eV     1   --> A''            
     e( 21 - 21) =      2.17409  eV     1   --> A'             
     e( 22 - 22) =      3.10416  eV     1   --> A''            
     e( 23 - 23) =      4.22218  eV     1   --> A'             
     e( 24 - 24) =      4.67175  eV     1   --> A'             
     e( 25 - 25) =      4.87692  eV     1   --> A'             
     e( 26 - 26) =      5.50139  eV     1   --> A'             
     e( 27 - 27) =      5.93195  eV     1   --> A'             
     e( 28 - 28) =      6.81360  eV     1   --> A'             
     e( 29 - 29) =      7.17214  eV     1   --> A'             
     e( 30 - 30) =      8.32335  eV     1   --> A'             
     e( 31 - 31) =      8.43849  eV     1   --> A'             
     e( 32 - 32) =      8.67575  eV     1   --> A'             
     e( 33 - 33) =      9.61389  eV     1   --> A'             
     e( 34 - 34) =     10.61868  eV     1   --> A'             
     e( 35 - 35) =     10.93122  eV     1   --> A'             
     e( 36 - 36) =     11.58997  eV     1   --> A'             

 **************************************************************************

 **************************************************************************

                    xk=(   0.21667,  -0.12509,   0.00000  )

     Band symmetry, C_s (m)     point group:

     e(  1 -  1) =    -74.81263  eV     1   --> A'             
     e(  2 -  2) =    -48.34936  eV     1   --> A'             
     e(  3 -  3) =    -48.34633  eV     1   --> A''            
     e(  4 -  4) =    -48.32434  eV     1   --> A'             
     e(  5 -  5) =    -48.32353  eV     1   --> A''            
     e(  6 -  6) =    -48.31380  eV     1   --> A'             
     e(  7 -  7) =    -39.06591  eV     1   --> A'             
     e(  8 -  8) =    -38.99850  eV     1   --> A'             
     e(  9 -  9) =    -38.89325  eV     1   --> A''            
     e( 10 - 10) =    -14.97932  eV     1   --> A'             
     e( 11 - 11) =    -14.01218  eV     1   --> A'             
     e( 12 - 12) =     -6.39244  eV     1   --> A'             
     e( 13 - 13) =     -4.94233  eV     1   --> A'             
     e( 14 - 14) =     -4.16350  eV     1   --> A'             
     e( 15 - 15) =     -3.16008  eV     1   --> A''            
     e( 16 - 16) =     -2.60041  eV     1   --> A'             
     e( 17 - 17) =     -2.03398  eV     1   --> A''            
     e( 18 - 18) =     -1.58777  eV     1   --> A'             
     e( 19 - 19) =      0.95857  eV     1   --> A'             
     e( 20 - 20) =      1.80453  eV     1   --> A''            
     e( 21 - 21) =      2.22900  eV     1   --> A'             
     e( 22 - 22) =      3.18319  eV     1   --> A''            
     e( 23 - 23) =      4.35287  eV     1   --> A'             
     e( 24 - 24) =      4.80912  eV     1   --> A'             
     e( 25 - 25) =      5.00031  eV     1   --> A'             
     e( 26 - 26) =      5.63285  eV     1   --> A'             
     e( 27 - 27) =      6.02517  eV     1   --> A'             
     e( 28 - 28) =      6.87912  eV     1   --> A'             
     e( 29 - 29) =      7.27383  eV     1   --> A'             
     e( 30 - 30) =      8.32848  eV     1   --> A'             
     e( 31 - 31) =      8.45893  eV     1   --> A'             
     e( 32 - 32) =      8.62151  eV     1   --> A'             
     e( 33 - 33) =      9.72038  eV     1   --> A'             
     e( 34 - 34) =     10.68609  eV     1   --> A'             
     e( 35 - 35) =     11.02480  eV     1   --> A'             
     e( 36 - 36) =     11.53847  eV     1   --> A'             

 **************************************************************************

 **************************************************************************

                    xk=(   0.23333,  -0.13472,   0.00000  )

     Band symmetry, C_s (m)     point group:

     e(  1 -  1) =    -74.81171  eV     1   --> A'             
     e(  2 -  2) =    -48.34937  eV     1   --> A'             
     e(  3 -  3) =    -48.34594  eV     1   --> A''            
     e(  4 -  4) =    -48.32451  eV     1   --> A'             
     e(  5 -  5) =    -48.32357  eV     1   --> A''            
     e(  6 -  6) =    -48.31362  eV     1   --> A'             
     e(  7 -  7) =    -39.06260  eV     1   --> A'             
     e(  8 -  8) =    -39.01618  eV     1   --> A'             
     e(  9 -  9) =    -38.89744  eV     1   --> A''            
     e( 10 - 10) =    -14.87068  eV     1   --> A'             
     e( 11 - 11) =    -13.95907  eV     1   --> A'             
     e( 12 - 12) =     -6.29765  eV     1   --> A'             
     e( 13 - 13) =     -5.08434  eV     1   --> A'             
     e( 14 - 14) =     -4.31834  eV     1   --> A'             
     e( 15 - 15) =     -3.20453  eV     1   --> A''            
     e( 16 - 16) =     -2.69407  eV     1   --> A'             
     e( 17 - 17) =     -1.99997  eV     1   --> A''            
     e( 18 - 18) =     -1.67563  eV     1   --> A'             
     e( 19 - 19) =      0.94192  eV     1   --> A'             
     e( 20 - 20) =      1.76881  eV     1   --> A''            
     e( 21 - 21) =      2.29398  eV     1   --> A'             
     e( 22 - 22) =      3.25708  eV     1   --> A''            
     e( 23 - 23) =      4.49097  eV     1   --> A'             
     e( 24 - 24) =      4.95649  eV     1   --> A'             
     e( 25 - 25) =      5.12963  eV     1   --> A'             
     e( 26 - 26) =      5.77162  eV     1   --> A'             
     e( 27 - 27) =      6.10720  eV     1   --> A'             
     e( 28 - 28) =      6.91879  eV     1   --> A'             
     e( 29 - 29) =      7.36930  eV     1   --> A'             
     e( 30 - 30) =      8.22445  eV     1   --> A'             
     e( 31 - 31) =      8.42095  eV     1   --> A'             
     e( 32 - 32) =      8.76828  eV     1   --> A'             
     e( 33 - 33) =      9.82824  eV     1   --> A'             
     e( 34 - 34) =     10.74812  eV     1   --> A'             
     e( 35 - 35) =     11.07530  eV     1   --> A'             
     e( 36 - 36) =     11.47952  eV     1   --> A'             

 **************************************************************************

 **************************************************************************

                    xk=(   0.25000,  -0.14434,   0.00000  )

     Band symmetry, C_s (m)     point group:

     e(  1 -  1) =    -74.81078  eV     1   --> A'             
     e(  2 -  2) =    -48.34938  eV     1   --> A'             
     e(  3 -  3) =    -48.34554  eV     1   --> A''            
     e(  4 -  4) =    -48.32465  eV     1   --> A'             
     e(  5 -  5) =    -48.32359  eV     1   --> A''            
     e(  6 -  6) =    -48.31342  eV     1   --> A'             
     e(  7 -  7) =    -39.05931  eV     1   --> A'             
     e(  8 -  8) =    -39.03394  eV     1   --> A'             
     e(  9 -  9) =    -38.90166  eV     1   --> A''            
     e( 10 - 10) =    -14.75749  eV     1   --> A'             
     e( 11 - 11) =    -13.90419  eV     1   --> A'             
     e( 12 - 12) =     -6.21987  eV     1   --> A'             
     e( 13 - 13) =     -5.21043  eV     1   --> A'             
     e( 14 - 14) =     -4.48121  eV     1   --> A'             
     e( 15 - 15) =     -3.25747  eV     1   --> A''            
     e( 16 - 16) =     -2.78094  eV     1   --> A'             
     e( 17 - 17) =     -1.95569  eV     1   --> A''            
     e( 18 - 18) =     -1.76431  eV     1   --> A'             
     e( 19 - 19) =      0.94873  eV     1   --> A'             
     e( 20 - 20) =      1.74254  eV     1   --> A''            
     e( 21 - 21) =      2.36667  eV     1   --> A'             
     e( 22 - 22) =      3.32514  eV     1   --> A''            
     e( 23 - 23) =      4.63530  eV     1   --> A'             
     e( 24 - 24) =      5.11349  eV     1   --> A'             
     e( 25 - 25) =      5.26353  eV     1   --> A'             
     e( 26 - 26) =      5.91614  eV     1   --> A'             
     e( 27 - 27) =      6.17107  eV     1   --> A'             
     e( 28 - 28) =      6.94675  eV     1   --> A'             
     e( 29 - 29) =      7.43928  eV     1   --> A'             
     e( 30 - 30) =      8.12197  eV     1   --> A'             
     e( 31 - 31) =      8.40302  eV     1   --> A'             
     e( 32 - 32) =      8.93667  eV     1   --> A'             
     e( 33 - 33) =      9.93086  eV     1   --> A'             
     e( 34 - 34) =     10.79262  eV     1   --> A'             
     e( 35 - 35) =     11.10520  eV     1   --> A'             
     e( 36 - 36) =     11.44199  eV     1   --> A'             

 **************************************************************************

 **************************************************************************

                    xk=(   0.26667,  -0.15396,   0.00000  )

     Band symmetry, C_s (m)     point group:

     e(  1 -  1) =    -74.80985  eV     1   --> A'             
     e(  2 -  2) =    -48.34939  eV     1   --> A'             
     e(  3 -  3) =    -48.34518  eV     1   --> A''            
     e(  4 -  4) =    -48.32479  eV     1   --> A'             
     e(  5 -  5) =    -48.32365  eV     1   --> A''            
     e(  6 -  6) =    -48.31322  eV     1   --> A'             
     e(  7 -  7) =    -39.05685  eV     1   --> A'             
     e(  8 -  8) =    -39.05081  eV     1   --> A'             
     e(  9 -  9) =    -38.90590  eV     1   --> A''            
     e( 10 - 10) =    -14.64059  eV     1   --> A'             
     e( 11 - 11) =    -13.84806  eV     1   --> A'             
     e( 12 - 12) =     -6.17302  eV     1   --> A'             
     e( 13 - 13) =     -5.30854  eV     1   --> A'             
     e( 14 - 14) =     -4.64922  eV     1   --> A'             
     e( 15 - 15) =     -3.31587  eV     1   --> A''            
     e( 16 - 16) =     -2.85991  eV     1   --> A'             
     e( 17 - 17) =     -1.90488  eV     1   --> A''            
     e( 18 - 18) =     -1.84937  eV     1   --> A'             
     e( 19 - 19) =      0.97667  eV     1   --> A'             
     e( 20 - 20) =      1.72686  eV     1   --> A''            
     e( 21 - 21) =      2.44461  eV     1   --> A'             
     e( 22 - 22) =      3.38694  eV     1   --> A''            
     e( 23 - 23) =      4.78392  eV     1   --> A'             
     e( 24 - 24) =      5.27952  eV     1   --> A'             
     e( 25 - 25) =      5.39974  eV     1   --> A'             
     e( 26 - 26) =      6.06293  eV     1   --> A'             
     e( 27 - 27) =      6.21073  eV     1   --> A'             
     e( 28 - 28) =      6.97836  eV     1   --> A'             
     e( 29 - 29) =      7.45499  eV     1   --> A'             
     e( 30 - 30) =      8.08923  eV     1   --> A'             
     e( 31 - 31) =      8.39225  eV     1   --> A'             
     e( 32 - 32) =      9.09425  eV     1   --> A'             
     e( 33 - 33) =     10.01727  eV     1   --> A'             
     e( 34 - 34) =     10.80970  eV     1   --> A'             
     e( 35 - 35) =     11.12428  eV     1   --> A'             
     e( 36 - 36) =     11.46238  eV     1   --> A'             

 **************************************************************************

 **************************************************************************

                    xk=(   0.28333,  -0.16358,   0.00000  )

     Band symmetry, C_s (m)     point group:

     e(  1 -  1) =    -74.80894  eV     1   --> A'             
     e(  2 -  2) =    -48.34941  eV     1   --> A'             
     e(  3 -  3) =    -48.34480  eV     1   --> A''            
     e(  4 -  4) =    -48.32495  eV     1   --> A'             
     e(  5 -  5) =    -48.32370  eV     1   --> A''            
     e(  6 -  6) =    -48.31303  eV     1   --> A'             
     e(  7 -  7) =    -39.06986  eV     1   --> A'             
     e(  8 -  8) =    -39.05200  eV     1   --> A'             
     e(  9 -  9) =    -38.91008  eV     1   --> A''            
     e( 10 - 10) =    -14.52096  eV     1   --> A'             
     e( 11 - 11) =    -13.79122  eV     1   --> A'             
     e( 12 - 12) =     -6.17292  eV     1   --> A'             
     e( 13 - 13) =     -5.36542  eV     1   --> A'             
     e( 14 - 14) =     -4.81868  eV     1   --> A'             
     e( 15 - 15) =     -3.37707  eV     1   --> A''            
     e( 16 - 16) =     -2.93042  eV     1   --> A'             
     e( 17 - 17) =     -1.92642  eV     1   --> A'             
     e( 18 - 18) =     -1.85095  eV     1   --> A''            
     e( 19 - 19) =      1.02312  eV     1   --> A'             
     e( 20 - 20) =      1.72257  eV     1   --> A''            
     e( 21 - 21) =      2.52530  eV     1   --> A'             
     e( 22 - 22) =      3.44227  eV     1   --> A''            
     e( 23 - 23) =      4.93362  eV     1   --> A'             
     e( 24 - 24) =      5.45332  eV     1   --> A'             
     e( 25 - 25) =      5.53445  eV     1   --> A'             
     e( 26 - 26) =      6.18355  eV     1   --> A'             
     e( 27 - 27) =      6.24909  eV     1   --> A'             
     e( 28 - 28) =      7.02365  eV     1   --> A'             
     e( 29 - 29) =      7.41514  eV     1   --> A'             
     e( 30 - 30) =      8.13935  eV     1   --> A'             
     e( 31 - 31) =      8.38638  eV     1   --> A'             
     e( 32 - 32) =      9.23525  eV     1   --> A'             
     e( 33 - 33) =     10.06974  eV     1   --> A'             
     e( 34 - 34) =     10.82330  eV     1   --> A'             
     e( 35 - 35) =     11.11300  eV     1   --> A'             
     e( 36 - 36) =     11.56059  eV     1   --> A'             

 **************************************************************************

 **************************************************************************

                    xk=(   0.30000,  -0.17321,   0.00000  )

     Band symmetry, C_s (m)     point group:

     e(  1 -  1) =    -74.80804  eV     1   --> A'             
     e(  2 -  2) =    -48.34943  eV     1   --> A'             
     e(  3 -  3) =    -48.34448  eV     1   --> A''            
     e(  4 -  4) =    -48.32512  eV     1   --> A'             
     e(  5 -  5) =    -48.32375  eV     1   --> A''            
     e(  6 -  6) =    -48.31283  eV     1   --> A'             
     e(  7 -  7) =    -39.08682  eV     1   --> A'             
     e(  8 -  8) =    -39.04889  eV     1   --> A'             
     e(  9 -  9) =    -38.91417  eV     1   --> A''            
     e( 10 - 10) =    -14.39966  eV     1   --> A'             
     e( 11 - 11) =    -13.73428  eV     1   --> A'             
     e( 12 - 12) =     -6.22561  eV     1   --> A'             
     e( 13 - 13) =     -5.37908  eV     1   --> A'             
     e( 14 - 14) =     -4.98436  eV     1   --> A'             
     e( 15 - 15) =     -3.43892  eV     1   --> A''            
     e( 16 - 16) =     -2.99226  eV     1   --> A'             
     e( 17 - 17) =     -1.99143  eV     1   --> A'             
     e( 18 - 18) =     -1.79675  eV     1   --> A''            
     e( 19 - 19) =      1.08544  eV     1   --> A'             
     e( 20 - 20) =      1.73010  eV     1   --> A''            
     e( 21 - 21) =      2.60631  eV     1   --> A'             
     e( 22 - 22) =      3.49113  eV     1   --> A''            
     e( 23 - 23) =      5.07858  eV     1   --> A'             
     e( 24 - 24) =      5.62781  eV     1   --> A'             
     e( 25 - 25) =      5.66465  eV     1   --> A'             
     e( 26 - 26) =      6.19252  eV     1   --> A'             
     e( 27 - 27) =      6.37669  eV     1   --> A'             
     e( 28 - 28) =      7.08317  eV     1   --> A'             
     e( 29 - 29) =      7.36063  eV     1   --> A'             
     e( 30 - 30) =      8.23612  eV     1   --> A'             
     e( 31 - 31) =      8.39607  eV     1   --> A'             
     e( 32 - 32) =      9.35643  eV     1   --> A'             
     e( 33 - 33) =     10.07510  eV     1   --> A'             
     e( 34 - 34) =     10.86833  eV     1   --> A'             
     e( 35 - 35) =     11.07253  eV     1   --> A'             
     e( 36 - 36) =     11.70802  eV     1   --> A'             

 **************************************************************************

 **************************************************************************

                    xk=(   0.31667,  -0.18283,   0.00000  )

     Band symmetry, C_s (m)     point group:

     e(  1 -  1) =    -74.80717  eV     1   --> A'             
     e(  2 -  2) =    -48.34944  eV     1   --> A'             
     e(  3 -  3) =    -48.34411  eV     1   --> A''            
     e(  4 -  4) =    -48.32524  eV     1   --> A'             
     e(  5 -  5) =    -48.32378  eV     1   --> A''            
     e(  6 -  6) =    -48.31262  eV     1   --> A'             
     e(  7 -  7) =    -39.10327  eV     1   --> A'             
     e(  8 -  8) =    -39.04576  eV     1   --> A'             
     e(  9 -  9) =    -38.91811  eV     1   --> A''            
     e( 10 - 10) =    -14.27794  eV     1   --> A'             
     e( 11 - 11) =    -13.67791  eV     1   --> A'             
     e( 12 - 12) =     -6.32019  eV     1   --> A'             
     e( 13 - 13) =     -5.37104  eV     1   --> A'             
     e( 14 - 14) =     -5.13420  eV     1   --> A'             
     e( 15 - 15) =     -3.49971  eV     1   --> A''            
     e( 16 - 16) =     -3.04555  eV     1   --> A'             
     e( 17 - 17) =     -2.04105  eV     1   --> A'             
     e( 18 - 18) =     -1.74455  eV     1   --> A''            
     e( 19 - 19) =      1.16111  eV     1   --> A'             
     e( 20 - 20) =      1.74935  eV     1   --> A''            
     e( 21 - 21) =      2.68527  eV     1   --> A'             
     e( 22 - 22) =      3.53365  eV     1   --> A''            
     e( 23 - 23) =      5.20724  eV     1   --> A'             
     e( 24 - 24) =      5.74337  eV     1   --> A'             
     e( 25 - 25) =      5.83008  eV     1   --> A'             
     e( 26 - 26) =      6.19216  eV     1   --> A'             
     e( 27 - 27) =      6.51277  eV     1   --> A'             
     e( 28 - 28) =      7.14927  eV     1   --> A'             
     e( 29 - 29) =      7.33505  eV     1   --> A'             
     e( 30 - 30) =      8.32882  eV     1   --> A'             
     e( 31 - 31) =      8.45043  eV     1   --> A'             
     e( 32 - 32) =      9.44972  eV     1   --> A'             
     e( 33 - 33) =     10.04669  eV     1   --> A'             
     e( 34 - 34) =     10.92259  eV     1   --> A'             
     e( 35 - 35) =     11.05169  eV     1   --> A'             
     e( 36 - 36) =     11.72306  eV     1   --> A''            

 **************************************************************************

 **************************************************************************

                    xk=(   0.33333,  -0.19245,   0.00000  )

     Band symmetry, C_s (m)     point group:

     e(  1 -  1) =    -74.80634  eV     1   --> A'             
     e(  2 -  2) =    -48.34941  eV     1   --> A'             
     e(  3 -  3) =    -48.34375  eV     1   --> A''            
     e(  4 -  4) =    -48.32535  eV     1   --> A'             
     e(  5 -  5) =    -48.32381  eV     1   --> A''            
     e(  6 -  6) =    -48.31242  eV     1   --> A'             
     e(  7 -  7) =    -39.11895  eV     1   --> A'             
     e(  8 -  8) =    -39.04274  eV     1   --> A'             
     e(  9 -  9) =    -38.92187  eV     1   --> A''            
     e( 10 - 10) =    -14.15717  eV     1   --> A'             
     e( 11 - 11) =    -13.62279  eV     1   --> A'             
     e( 12 - 12) =     -6.43962  eV     1   --> A'             
     e( 13 - 13) =     -5.40405  eV     1   --> A'             
     e( 14 - 14) =     -5.22071  eV     1   --> A'             
     e( 15 - 15) =     -3.55813  eV     1   --> A''            
     e( 16 - 16) =     -3.09069  eV     1   --> A'             
     e( 17 - 17) =     -2.07291  eV     1   --> A'             
     e( 18 - 18) =     -1.69603  eV     1   --> A''            
     e( 19 - 19) =      1.24772  eV     1   --> A'             
     e( 20 - 20) =      1.77970  eV     1   --> A''            
     e( 21 - 21) =      2.75994  eV     1   --> A'             
     e( 22 - 22) =      3.57011  eV     1   --> A''            
     e( 23 - 23) =      5.29561  eV     1   --> A'             
     e( 24 - 24) =      5.79734  eV     1   --> A'             
     e( 25 - 25) =      6.01249  eV     1   --> A'             
     e( 26 - 26) =      6.24078  eV     1   --> A'             
     e( 27 - 27) =      6.63270  eV     1   --> A'             
     e( 28 - 28) =      7.21700  eV     1   --> A'             
     e( 29 - 29) =      7.36719  eV     1   --> A'             
     e( 30 - 30) =      8.39426  eV     1   --> A'             
     e( 31 - 31) =      8.56088  eV     1   --> A'             
     e( 32 - 32) =      9.50150  eV     1   --> A'             
     e( 33 - 33) =     10.01731  eV     1   --> A'             
     e( 34 - 34) =     10.90178  eV     1   --> A'             
     e( 35 - 35) =     11.14097  eV     1   --> A'             
     e( 36 - 36) =     11.52064  eV     1   --> A''            

 **************************************************************************

 **************************************************************************

                    xk=(   0.35000,  -0.20207,   0.00000  )

     Band symmetry, C_s (m)     point group:

     e(  1 -  1) =    -74.80556  eV     1   --> A'             
     e(  2 -  2) =    -48.34942  eV     1   --> A'             
     e(  3 -  3) =    -48.34342  eV     1   --> A''            
     e(  4 -  4) =    -48.32547  eV     1   --> A'             
     e(  5 -  5) =    -48.32383  eV     1   --> A''            
     e(  6 -  6) =    -48.31224  eV     1   --> A'             
     e(  7 -  7) =    -39.13369  eV     1   --> A'             
     e(  8 -  8) =    -39.03990  eV     1   --> A'             
     e(  9 -  9) =    -38.92541  eV     1   --> A''            
     e( 10 - 10) =    -14.03891  eV     1   --> A'             
     e( 11 - 11) =    -13.56965  eV     1   --> A'             
     e( 12 - 12) =     -6.57067  eV     1   --> A'             
     e( 13 - 13) =     -5.51815  eV     1   --> A'             
     e( 14 - 14) =     -5.21457  eV     1   --> A'             
     e( 15 - 15) =     -3.61315  eV     1   --> A''            
     e( 16 - 16) =     -3.12830  eV     1   --> A'             
     e( 17 - 17) =     -2.08588  eV     1   --> A'             
     e( 18 - 18) =     -1.65231  eV     1   --> A''            
     e( 19 - 19) =      1.34303  eV     1   --> A'             
     e( 20 - 20) =      1.81989  eV     1   --> A''            
     e( 21 - 21) =      2.82825  eV     1   --> A'             
     e( 22 - 22) =      3.60086  eV     1   --> A''            
     e( 23 - 23) =      5.30702  eV     1   --> A'             
     e( 24 - 24) =      5.83865  eV     1   --> A'             
     e( 25 - 25) =      6.17531  eV     1   --> A'             
     e( 26 - 26) =      6.35743  eV     1   --> A'             
     e( 27 - 27) =      6.73644  eV     1   --> A'             
     e( 28 - 28) =      7.30436  eV     1   --> A'             
     e( 29 - 29) =      7.45178  eV     1   --> A'             
     e( 30 - 30) =      8.46308  eV     1   --> A'             
     e( 31 - 31) =      8.68228  eV     1   --> A'             
     e( 32 - 32) =      9.51037  eV     1   --> A'             
     e( 33 - 33) =     10.00536  eV     1   --> A'             
     e( 34 - 34) =     10.87830  eV     1   --> A'             
     e( 35 - 35) =     11.27123  eV     1   --> A'             
     e( 36 - 36) =     11.31299  eV     1   --> A''            

 **************************************************************************

 **************************************************************************

                    xk=(   0.36667,  -0.21170,   0.00000  )

     Band symmetry, C_s (m)     point group:

     e(  1 -  1) =    -74.80484  eV     1   --> A'             
     e(  2 -  2) =    -48.34944  eV     1   --> A'             
     e(  3 -  3) =    -48.34310  eV     1   --> A''            
     e(  4 -  4) =    -48.32560  eV     1   --> A'             
     e(  5 -  5) =    -48.32387  eV     1   --> A''            
     e(  6 -  6) =    -48.31208  eV     1   --> A'             
     e(  7 -  7) =    -39.14731  eV     1   --> A'             
     e(  8 -  8) =    -39.03726  eV     1   --> A'             
     e(  9 -  9) =    -38.92868  eV     1   --> A''            
     e( 10 - 10) =    -13.92486  eV     1   --> A'             
     e( 11 - 11) =    -13.51926  eV     1   --> A'             
     e( 12 - 12) =     -6.70473  eV     1   --> A'             
     e( 13 - 13) =     -5.64932  eV     1   --> A'             
     e( 14 - 14) =     -5.18498  eV     1   --> A'             
     e( 15 - 15) =     -3.66398  eV     1   --> A''            
     e( 16 - 16) =     -3.15919  eV     1   --> A'             
     e( 17 - 17) =     -2.08032  eV     1   --> A'             
     e( 18 - 18) =     -1.61405  eV     1   --> A''            
     e( 19 - 19) =      1.44486  eV     1   --> A'             
     e( 20 - 20) =      1.86807  eV     1   --> A''            
     e( 21 - 21) =      2.88846  eV     1   --> A'             
     e( 22 - 22) =      3.62634  eV     1   --> A''            
     e( 23 - 23) =      5.23080  eV     1   --> A'             
     e( 24 - 24) =      5.90432  eV     1   --> A'             
     e( 25 - 25) =      6.29521  eV     1   --> A'             
     e( 26 - 26) =      6.53082  eV     1   --> A'             
     e( 27 - 27) =      6.84390  eV     1   --> A'             
     e( 28 - 28) =      7.42594  eV     1   --> A'             
     e( 29 - 29) =      7.56843  eV     1   --> A'             
     e( 30 - 30) =      8.53840  eV     1   --> A'             
     e( 31 - 31) =      8.78792  eV     1   --> A'             
     e( 32 - 32) =      9.50703  eV     1   --> A'             
     e( 33 - 33) =      9.99963  eV     1   --> A'             
     e( 34 - 34) =     10.90194  eV     1   --> A'             
     e( 35 - 35) =     11.10817  eV     1   --> A''            
     e( 36 - 36) =     11.36454  eV     1   --> A'             

 **************************************************************************

 **************************************************************************

                    xk=(   0.38333,  -0.22132,   0.00000  )

     Band symmetry, C_s (m)     point group:

     e(  1 -  1) =    -74.80418  eV     1   --> A'             
     e(  2 -  2) =    -48.34941  eV     1   --> A'             
     e(  3 -  3) =    -48.34284  eV     1   --> A''            
     e(  4 -  4) =    -48.32570  eV     1   --> A'             
     e(  5 -  5) =    -48.32388  eV     1   --> A''            
     e(  6 -  6) =    -48.31192  eV     1   --> A'             
     e(  7 -  7) =    -39.15969  eV     1   --> A'             
     e(  8 -  8) =    -39.03485  eV     1   --> A'             
     e(  9 -  9) =    -38.93166  eV     1   --> A''            
     e( 10 - 10) =    -13.81692  eV     1   --> A'             
     e( 11 - 11) =    -13.47239  eV     1   --> A'             
     e( 12 - 12) =     -6.83588  eV     1   --> A'             
     e( 13 - 13) =     -5.77369  eV     1   --> A'             
     e( 14 - 14) =     -5.15720  eV     1   --> A'             
     e( 15 - 15) =     -3.70999  eV     1   --> A''            
     e( 16 - 16) =     -3.18428  eV     1   --> A'             
     e( 17 - 17) =     -2.05826  eV     1   --> A'             
     e( 18 - 18) =     -1.58145  eV     1   --> A''            
     e( 19 - 19) =      1.55099  eV     1   --> A'             
     e( 20 - 20) =      1.92181  eV     1   --> A''            
     e( 21 - 21) =      2.93915  eV     1   --> A'             
     e( 22 - 22) =      3.64701  eV     1   --> A''            
     e( 23 - 23) =      5.09793  eV     1   --> A'             
     e( 24 - 24) =      5.98430  eV     1   --> A'             
     e( 25 - 25) =      6.37641  eV     1   --> A'             
     e( 26 - 26) =      6.73317  eV     1   --> A'             
     e( 27 - 27) =      6.97916  eV     1   --> A'             
     e( 28 - 28) =      7.57437  eV     1   --> A'             
     e( 29 - 29) =      7.70553  eV     1   --> A'             
     e( 30 - 30) =      8.59661  eV     1   --> A'             
     e( 31 - 31) =      8.87808  eV     1   --> A'             
     e( 32 - 32) =      9.52900  eV     1   --> A'             
     e( 33 - 33) =      9.99200  eV     1   --> A'             
     e( 34 - 34) =     10.91238  eV     1   --> A''            
     e( 35 - 35) =     10.96639  eV     1   --> A'             
     e( 36 - 36) =     11.17191  eV     1   --> A'             

 **************************************************************************

 **************************************************************************

                    xk=(   0.40000,  -0.23094,   0.00000  )

     Band symmetry, C_s (m)     point group:

     e(  1 -  1) =    -74.80360  eV     1   --> A'             
     e(  2 -  2) =    -48.34943  eV     1   --> A'             
     e(  3 -  3) =    -48.34261  eV     1   --> A''            
     e(  4 -  4) =    -48.32581  eV     1   --> A'             
     e(  5 -  5) =    -48.32392  eV     1   --> A''            
     e(  6 -  6) =    -48.31179  eV     1   --> A'             
     e(  7 -  7) =    -39.17069  eV     1   --> A'             
     e(  8 -  8) =    -39.03271  eV     1   --> A'             
     e(  9 -  9) =    -38.93431  eV     1   --> A''            
     e( 10 - 10) =    -13.71713  eV     1   --> A'             
     e( 11 - 11) =    -13.42980  eV     1   --> A'             
     e( 12 - 12) =     -6.95955  eV     1   --> A'             
     e( 13 - 13) =     -5.88554  eV     1   --> A'             
     e( 14 - 14) =     -5.13612  eV     1   --> A'             
     e( 15 - 15) =     -3.75070  eV     1   --> A''            
     e( 16 - 16) =     -3.20445  eV     1   --> A'             
     e( 17 - 17) =     -2.02326  eV     1   --> A'             
     e( 18 - 18) =     -1.55444  eV     1   --> A''            
     e( 19 - 19) =      1.65898  eV     1   --> A'             
     e( 20 - 20) =      1.97821  eV     1   --> A''            
     e( 21 - 21) =      2.97935  eV     1   --> A'             
     e( 22 - 22) =      3.66339  eV     1   --> A''            
     e( 23 - 23) =      4.93946  eV     1   --> A'             
     e( 24 - 24) =      6.06305  eV     1   --> A'             
     e( 25 - 25) =      6.43282  eV     1   --> A'             
     e( 26 - 26) =      6.94436  eV     1   --> A'             
     e( 27 - 27) =      7.14932  eV     1   --> A'             
     e( 28 - 28) =      7.73568  eV     1   --> A'             
     e( 29 - 29) =      7.85537  eV     1   --> A'             
     e( 30 - 30) =      8.61684  eV     1   --> A'             
     e( 31 - 31) =      8.97317  eV     1   --> A'             
     e( 32 - 32) =      9.58434  eV     1   --> A'             
     e( 33 - 33) =      9.99639  eV     1   --> A'             
     e( 34 - 34) =     10.73083  eV     1   --> A''            
     e( 35 - 35) =     10.78474  eV     1   --> A'             
     e( 36 - 36) =     11.12232  eV     1   --> A'             

 **************************************************************************

 **************************************************************************

                    xk=(   0.41667,  -0.24056,   0.00000  )

     Band symmetry, C_s (m)     point group:

     e(  1 -  1) =    -74.80309  eV     1   --> A'             
     e(  2 -  2) =    -48.34944  eV     1   --> A'             
     e(  3 -  3) =    -48.34242  eV     1   --> A''            
     e(  4 -  4) =    -48.32590  eV     1   --> A'             
     e(  5 -  5) =    -48.32393  eV     1   --> A''            
     e(  6 -  6) =    -48.31167  eV     1   --> A'             
     e(  7 -  7) =    -39.18019  eV     1   --> A'             
     e(  8 -  8) =    -39.03085  eV     1   --> A'             
     e(  9 -  9) =    -38.93661  eV     1   --> A''            
     e( 10 - 10) =    -13.62764  eV     1   --> A'             
     e( 11 - 11) =    -13.39224  eV     1   --> A'             
     e( 12 - 12) =     -7.07183  eV     1   --> A'             
     e( 13 - 13) =     -5.98249  eV     1   --> A'             
     e( 14 - 14) =     -5.12205  eV     1   --> A'             
     e( 15 - 15) =     -3.78570  eV     1   --> A''            
     e( 16 - 16) =     -3.22045  eV     1   --> A'             
     e( 17 - 17) =     -1.98010  eV     1   --> A'             
     e( 18 - 18) =     -1.53269  eV     1   --> A''            
     e( 19 - 19) =      1.76594  eV     1   --> A'             
     e( 20 - 20) =      2.03402  eV     1   --> A''            
     e( 21 - 21) =      3.00861  eV     1   --> A'             
     e( 22 - 22) =      3.67600  eV     1   --> A''            
     e( 23 - 23) =      4.77513  eV     1   --> A'             
     e( 24 - 24) =      6.13583  eV     1   --> A'             
     e( 25 - 25) =      6.47525  eV     1   --> A'             
     e( 26 - 26) =      7.14905  eV     1   --> A'             
     e( 27 - 27) =      7.34867  eV     1   --> A'             
     e( 28 - 28) =      7.88932  eV     1   --> A'             
     e( 29 - 29) =      8.01644  eV     1   --> A'             
     e( 30 - 30) =      8.62529  eV     1   --> A'             
     e( 31 - 31) =      9.06951  eV     1   --> A'             
     e( 32 - 32) =      9.66383  eV     1   --> A'             
     e( 33 - 33) =     10.02005  eV     1   --> A'             
     e( 34 - 34) =     10.45196  eV     1   --> A'             
     e( 35 - 35) =     10.56815  eV     1   --> A''            
     e( 36 - 36) =     10.85094  eV     1   --> A'             

 **************************************************************************

 **************************************************************************

                    xk=(   0.43333,  -0.25019,   0.00000  )

     Band symmetry, C_s (m)     point group:

     e(  1 -  1) =    -74.80267  eV     1   --> A'             
     e(  2 -  2) =    -48.34943  eV     1   --> A'             
     e(  3 -  3) =    -48.34224  eV     1   --> A''            
     e(  4 -  4) =    -48.32596  eV     1   --> A'             
     e(  5 -  5) =    -48.32393  eV     1   --> A''            
     e(  6 -  6) =    -48.31157  eV     1   --> A'             
     e(  7 -  7) =    -39.18810  eV     1   --> A'             
     e(  8 -  8) =    -39.02930  eV     1   --> A'             
     e(  9 -  9) =    -38.93851  eV     1   --> A''            
     e( 10 - 10) =    -13.55060  eV     1   --> A'             
     e( 11 - 11) =    -13.36040  eV     1   --> A'             
     e( 12 - 12) =     -7.16923  eV     1   --> A'             
     e( 13 - 13) =     -6.06318  eV     1   --> A'             
     e( 14 - 14) =     -5.11379  eV     1   --> A'             
     e( 15 - 15) =     -3.81472  eV     1   --> A''            
     e( 16 - 16) =     -3.23288  eV     1   --> A'             
     e( 17 - 17) =     -1.93428  eV     1   --> A'             
     e( 18 - 18) =     -1.51578  eV     1   --> A''            
     e( 19 - 19) =      1.86807  eV     1   --> A'             
     e( 20 - 20) =      2.08586  eV     1   --> A''            
     e( 21 - 21) =      3.02710  eV     1   --> A'             
     e( 22 - 22) =      3.68536  eV     1   --> A''            
     e( 23 - 23) =      4.61893  eV     1   --> A'             
     e( 24 - 24) =      6.20326  eV     1   --> A'             
     e( 25 - 25) =      6.50869  eV     1   --> A'             
     e( 26 - 26) =      7.32187  eV     1   --> A'             
     e( 27 - 27) =      7.57221  eV     1   --> A'             
     e( 28 - 28) =      8.01701  eV     1   --> A'             
     e( 29 - 29) =      8.19251  eV     1   --> A'             
     e( 30 - 30) =      8.67071  eV     1   --> A'             
     e( 31 - 31) =      9.14329  eV     1   --> A'             
     e( 32 - 32) =      9.76961  eV     1   --> A'             
     e( 33 - 33) =      9.98724  eV     1   --> A'             
     e( 34 - 34) =     10.17200  eV     1   --> A'             
     e( 35 - 35) =     10.42851  eV     1   --> A''            
     e( 36 - 36) =     10.57737  eV     1   --> A'             

 **************************************************************************

 **************************************************************************

                    xk=(   0.45000,  -0.25981,   0.00000  )

     Band symmetry, C_s (m)     point group:

     e(  1 -  1) =    -74.80234  eV     1   --> A'             
     e(  2 -  2) =    -48.34943  eV     1   --> A'             
     e(  3 -  3) =    -48.34211  eV     1   --> A''            
     e(  4 -  4) =    -48.32601  eV     1   --> A'             
     e(  5 -  5) =    -48.32396  eV     1   --> A''            
     e(  6 -  6) =    -48.31151  eV     1   --> A'             
     e(  7 -  7) =    -39.19433  eV     1   --> A'             
     e(  8 -  8) =    -39.02808  eV     1   --> A'             
     e(  9 -  9) =    -38.94002  eV     1   --> A''            
     e( 10 - 10) =    -13.48810  eV     1   --> A'             
     e( 11 - 11) =    -13.33489  eV     1   --> A'             
     e( 12 - 12) =     -7.24864  eV     1   --> A'             
     e( 13 - 13) =     -6.12673  eV     1   --> A'             
     e( 14 - 14) =     -5.10966  eV     1   --> A'             
     e( 15 - 15) =     -3.83750  eV     1   --> A''            
     e( 16 - 16) =     -3.24218  eV     1   --> A'             
     e( 17 - 17) =     -1.89141  eV     1   --> A'             
     e( 18 - 18) =     -1.50324  eV     1   --> A''            
     e( 19 - 19) =      1.96023  eV     1   --> A'             
     e( 20 - 20) =      2.13040  eV     1   --> A''            
     e( 21 - 21) =      3.03587  eV     1   --> A'             
     e( 22 - 22) =      3.69197  eV     1   --> A''            
     e( 23 - 23) =      4.48244  eV     1   --> A'             
     e( 24 - 24) =      6.26596  eV     1   --> A'             
     e( 25 - 25) =      6.53344  eV     1   --> A'             
     e( 26 - 26) =      7.43035  eV     1   --> A'             
     e( 27 - 27) =      7.81772  eV     1   --> A'             
     e( 28 - 28) =      8.13850  eV     1   --> A'             
     e( 29 - 29) =      8.37074  eV     1   --> A'             
     e( 30 - 30) =      8.77629  eV     1   --> A'             
     e( 31 - 31) =      9.18675  eV     1   --> A'             
     e( 32 - 32) =      9.69797  eV     1   --> A'             
     e( 33 - 33) =      9.94082  eV     1   --> A'             
     e( 34 - 34) =     10.01438  eV     1   --> A'             
     e( 35 - 35) =     10.31559  eV     1   --> A''            
     e( 36 - 36) =     10.39594  eV     1   --> A'             

 **************************************************************************

 **************************************************************************

                    xk=(   0.46667,  -0.26943,   0.00000  )

     Band symmetry, C_s (m)     point group:

     e(  1 -  1) =    -74.80209  eV     1   --> A'             
     e(  2 -  2) =    -48.34942  eV     1   --> A'             
     e(  3 -  3) =    -48.34201  eV     1   --> A''            
     e(  4 -  4) =    -48.32602  eV     1   --> A'             
     e(  5 -  5) =    -48.32395  eV     1   --> A''            
     e(  6 -  6) =    -48.31144  eV     1   --> A'             
     e(  7 -  7) =    -39.19883  eV     1   --> A'             
     e(  8 -  8) =    -39.02719  eV     1   --> A'             
     e(  9 -  9) =    -38.94110  eV     1   --> A''            
     e( 10 - 10) =    -13.44198  eV     1   --> A'             
     e( 11 - 11) =    -13.31624  eV     1   --> A'             
     e( 12 - 12) =     -7.30741  eV     1   --> A'             
     e( 13 - 13) =     -6.17252  eV     1   --> A'             
     e( 14 - 14) =     -5.10803  eV     1   --> A'             
     e( 15 - 15) =     -3.85390  eV     1   --> A''            
     e( 16 - 16) =     -3.24863  eV     1   --> A'             
     e( 17 - 17) =     -1.85661  eV     1   --> A'             
     e( 18 - 18) =     -1.49463  eV     1   --> A''            
     e( 19 - 19) =      2.03554  eV     1   --> A'             
     e( 20 - 20) =      2.16467  eV     1   --> A''            
     e( 21 - 21) =      3.03729  eV     1   --> A'             
     e( 22 - 22) =      3.69630  eV     1   --> A''            
     e( 23 - 23) =      4.37599  eV     1   --> A'             
     e( 24 - 24) =      6.32150  eV     1   --> A'             
     e( 25 - 25) =      6.54818  eV     1   --> A'             
     e( 26 - 26) =      7.46948  eV     1   --> A'             
     e( 27 - 27) =      8.07872  eV     1   --> A'             
     e( 28 - 28) =      8.27311  eV     1   --> A'             
     e( 29 - 29) =      8.53225  eV     1   --> A'             
     e( 30 - 30) =      8.93028  eV     1   --> A'             
     e( 31 - 31) =      9.20089  eV     1   --> A'             
     e( 32 - 32) =      9.40653  eV     1   --> A'             
     e( 33 - 33) =      9.80189  eV     1   --> A'             
     e( 34 - 34) =     10.00378  eV     1   --> A'             
     e( 35 - 35) =     10.23252  eV     1   --> A''            
     e( 36 - 36) =     10.24672  eV     1   --> A'             

 **************************************************************************

 **************************************************************************

                    xk=(   0.48333,  -0.27905,   0.00000  )

     Band symmetry, C_s (m)     point group:

     e(  1 -  1) =    -74.80195  eV     1   --> A'             
     e(  2 -  2) =    -48.34941  eV     1   --> A'             
     e(  3 -  3) =    -48.34195  eV     1   --> A''            
     e(  4 -  4) =    -48.32606  eV     1   --> A'             
     e(  5 -  5) =    -48.32396  eV     1   --> A''            
     e(  6 -  6) =    -48.31140  eV     1   --> A'             
     e(  7 -  7) =    -39.20155  eV     1   --> A'             
     e(  8 -  8) =    -39.02666  eV     1   --> A'             
     e(  9 -  9) =    -38.94176  eV     1   --> A''            
     e( 10 - 10) =    -13.41370  eV     1   --> A'             
     e( 11 - 11) =    -13.30486  eV     1   --> A'             
     e( 12 - 12) =     -7.34354  eV     1   --> A'             
     e( 13 - 13) =     -6.20016  eV     1   --> A'             
     e( 14 - 14) =     -5.10760  eV     1   --> A'             
     e( 15 - 15) =     -3.86378  eV     1   --> A''            
     e( 16 - 16) =     -3.25244  eV     1   --> A'             
     e( 17 - 17) =     -1.83396  eV     1   --> A'             
     e( 18 - 18) =     -1.48961  eV     1   --> A''            
     e( 19 - 19) =      2.08580  eV     1   --> A'             
     e( 20 - 20) =      2.18627  eV     1   --> A''            
     e( 21 - 21) =      3.03522  eV     1   --> A'             
     e( 22 - 22) =      3.69873  eV     1   --> A''            
     e( 23 - 23) =      4.30817  eV     1   --> A'             
     e( 24 - 24) =      6.36277  eV     1   --> A'             
     e( 25 - 25) =      6.55342  eV     1   --> A'             
     e( 26 - 26) =      7.47149  eV     1   --> A'             
     e( 27 - 27) =      8.32789  eV     1   --> A'             
     e( 28 - 28) =      8.39728  eV     1   --> A'             
     e( 29 - 29) =      8.67461  eV     1   --> A'             
     e( 30 - 30) =      8.99113  eV     1   --> A'             
     e( 31 - 31) =      9.18085  eV     1   --> A'             
     e( 32 - 32) =      9.24722  eV     1   --> A'             
     e( 33 - 33) =      9.63891  eV     1   --> A'             
     e( 34 - 34) =      9.78209  eV     1   --> A'             
     e( 35 - 35) =     10.18168  eV     1   --> A''            
     e( 36 - 36) =     10.36037  eV     1   --> A'             

 **************************************************************************

 **************************************************************************

                    xk=(   0.50000,  -0.28868,   0.00000  )

     Band symmetry, C_s (m)     point group:

     e(  1 -  1) =    -74.80190  eV     1   --> A'             
     e(  2 -  2) =    -48.34939  eV     1   --> A'             
[...]
     e(  7 -  7) =    -39.08060  eV     1   --> A              
     e(  8 -  8) =    -38.91908  eV     1   --> A              
     e(  9 -  9) =    -38.87570  eV     1   --> A              
     e( 10 - 10) =    -15.42429  eV     1   --> A              
     e( 11 - 11) =    -14.23340  eV     1   --> A              
     e( 12 - 12) =     -6.88226  eV     1   --> A              
     e( 13 - 13) =     -4.19230  eV     1   --> A              
     e( 14 - 14) =     -3.58317  eV     1   --> A              
     e( 15 - 15) =     -3.12235  eV     1   --> A              
     e( 16 - 16) =     -2.21536  eV     1   --> A              
     e( 17 - 17) =     -1.89239  eV     1   --> A              
     e( 18 - 18) =     -1.25387  eV     1   --> A              
     e( 19 - 19) =      1.41475  eV     1   --> A              
     e( 20 - 20) =      2.01156  eV     1   --> A              
     e( 21 - 21) =      2.06532  eV     1   --> A              
     e( 22 - 22) =      2.78979  eV     1   --> A              
     e( 23 - 23) =      3.79809  eV     1   --> A              
     e( 24 - 24) =      4.23497  eV     1   --> A              
     e( 25 - 25) =      4.46720  eV     1   --> A              
     e( 26 - 26) =      5.07255  eV     1   --> A              
     e( 27 - 27) =      5.53861  eV     1   --> A              
     e( 28 - 28) =      6.29969  eV     1   --> A              
     e( 29 - 29) =      6.79462  eV     1   --> A              
     e( 30 - 30) =      7.80544  eV     1   --> A              
     e( 31 - 31) =      8.80847  eV     1   --> A              
     e( 32 - 32) =      9.08639  eV     1   --> A              
     e( 33 - 33) =      9.32592  eV     1   --> A              
     e( 34 - 34) =     10.34117  eV     1   --> A              
     e( 35 - 35) =     10.41203  eV     1   --> A              
     e( 36 - 36) =     10.76394  eV     1   --> A              

 **************************************************************************

 **************************************************************************

                    xk=(   0.13333,   0.00000,   0.00000  )

     Band symmetry, C_1 (1)     point group:

     e(  1 -  1) =    -74.81742  eV     1   --> A              
     e(  2 -  2) =    -48.34929  eV     1   --> A              
     e(  3 -  3) =    -48.34840  eV     1   --> A              
     e(  4 -  4) =    -48.32359  eV     1   --> A              
     e(  5 -  5) =    -48.32336  eV     1   --> A              
     e(  6 -  6) =    -48.31483  eV     1   --> A              
     e(  7 -  7) =    -39.08337  eV     1   --> A              
     e(  8 -  8) =    -38.90461  eV     1   --> A              
     e(  9 -  9) =    -38.87181  eV     1   --> A              
     e( 10 - 10) =    -15.50293  eV     1   --> A              
     e( 11 - 11) =    -14.27303  eV     1   --> A              
     e( 12 - 12) =     -6.97913  eV     1   --> A              
     e( 13 - 13) =     -4.04017  eV     1   --> A              
     e( 14 - 14) =     -3.49135  eV     1   --> A              
     e( 15 - 15) =     -3.14497  eV     1   --> A              
     e( 16 - 16) =     -2.08166  eV     1   --> A              
     e( 17 - 17) =     -1.85801  eV     1   --> A              
     e( 18 - 18) =     -1.23291  eV     1   --> A              
     e( 19 - 19) =      1.58458  eV     1   --> A              
     e( 20 - 20) =      2.06225  eV     1   --> A              
     e( 21 - 21) =      2.13183  eV     1   --> A              
     e( 22 - 22) =      2.68261  eV     1   --> A              
     e( 23 - 23) =      3.69528  eV     1   --> A              
     e( 24 - 24) =      4.13676  eV     1   --> A              
     e( 25 - 25) =      4.36499  eV     1   --> A              
     e( 26 - 26) =      4.97326  eV     1   --> A              
     e( 27 - 27) =      5.40167  eV     1   --> A              
     e( 28 - 28) =      6.10926  eV     1   --> A              
     e( 29 - 29) =      6.69722  eV     1   --> A              
     e( 30 - 30) =      7.69696  eV     1   --> A              
     e( 31 - 31) =      8.92818  eV     1   --> A              
     e( 32 - 32) =      8.96537  eV     1   --> A              
     e( 33 - 33) =      9.15997  eV     1   --> A              
     e( 34 - 34) =     10.27026  eV     1   --> A              
     e( 35 - 35) =     10.61445  eV     1   --> A              
     e( 36 - 36) =     10.66984  eV     1   --> A              

 **************************************************************************

 **************************************************************************

                    xk=(   0.11111,   0.00000,   0.00000  )

     Band symmetry, C_1 (1)     point group:

     e(  1 -  1) =    -74.81808  eV     1   --> A              
     e(  2 -  2) =    -48.34929  eV     1   --> A              
     e(  3 -  3) =    -48.34866  eV     1   --> A              
     e(  4 -  4) =    -48.32347  eV     1   --> A              
     e(  5 -  5) =    -48.32332  eV     1   --> A              
     e(  6 -  6) =    -48.31498  eV     1   --> A              
     e(  7 -  7) =    -39.08578  eV     1   --> A              
     e(  8 -  8) =    -38.89184  eV     1   --> A              
     e(  9 -  9) =    -38.86851  eV     1   --> A              
     e( 10 - 10) =    -15.57038  eV     1   --> A              
     e( 11 - 11) =    -14.30711  eV     1   --> A              
     e( 12 - 12) =     -7.06308  eV     1   --> A              
     e( 13 - 13) =     -3.89985  eV     1   --> A              
     e( 14 - 14) =     -3.41382  eV     1   --> A              
     e( 15 - 15) =     -3.17672  eV     1   --> A              
     e( 16 - 16) =     -1.95923  eV     1   --> A              
     e( 17 - 17) =     -1.82082  eV     1   --> A              
     e( 18 - 18) =     -1.22111  eV     1   --> A              
     e( 19 - 19) =      1.76335  eV     1   --> A              
     e( 20 - 20) =      2.11333  eV     1   --> A              
     e( 21 - 21) =      2.20065  eV     1   --> A              
     e( 22 - 22) =      2.58411  eV     1   --> A              
     e( 23 - 23) =      3.60500  eV     1   --> A              
     e( 24 - 24) =      4.05326  eV     1   --> A              
     e( 25 - 25) =      4.27358  eV     1   --> A              
     e( 26 - 26) =      4.88751  eV     1   --> A              
     e( 27 - 27) =      5.26327  eV     1   --> A              
     e( 28 - 28) =      5.94401  eV     1   --> A              
     e( 29 - 29) =      6.61418  eV     1   --> A              
     e( 30 - 30) =      7.60820  eV     1   --> A              
     e( 31 - 31) =      8.78164  eV     1   --> A              
     e( 32 - 32) =      8.98246  eV     1   --> A              
     e( 33 - 33) =      9.12034  eV     1   --> A              
     e( 34 - 34) =     10.20753  eV     1   --> A              
     e( 35 - 35) =     10.49806  eV     1   --> A              
     e( 36 - 36) =     10.92550  eV     1   --> A              

 **************************************************************************

 **************************************************************************

                    xk=(   0.08889,   0.00000,   0.00000  )

     Band symmetry, C_1 (1)     point group:

     e(  1 -  1) =    -74.81864  eV     1   --> A              
     e(  2 -  2) =    -48.34931  eV     1   --> A              
     e(  3 -  3) =    -48.34889  eV     1   --> A              
     e(  4 -  5) =    -48.32338  eV     2   -->   2 A              
     e(  6 -  6) =    -48.31510  eV     1   --> A              
     e(  7 -  7) =    -39.08780  eV     1   --> A              
     e(  8 -  8) =    -38.88105  eV     1   --> A              
     e(  9 -  9) =    -38.86581  eV     1   --> A              
     e( 10 - 10) =    -15.62618  eV     1   --> A              
     e( 11 - 11) =    -14.33536  eV     1   --> A              
     e( 12 - 12) =     -7.13311  eV     1   --> A              
     e( 13 - 13) =     -3.77435  eV     1   --> A              
     e( 14 - 14) =     -3.35357  eV     1   --> A              
     e( 15 - 15) =     -3.20921  eV     1   --> A              
     e( 16 - 16) =     -1.85601  eV     1   --> A              
     e( 17 - 17) =     -1.78099  eV     1   --> A              
     e( 18 - 18) =     -1.21732  eV     1   --> A              
     e( 19 - 19) =      1.94221  eV     1   --> A              
     e( 20 - 20) =      2.16804  eV     1   --> A              
     e( 21 - 21) =      2.26045  eV     1   --> A              
     e( 22 - 22) =      2.49827  eV     1   --> A              
     e( 23 - 23) =      3.52662  eV     1   --> A              
     e( 24 - 24) =      3.98449  eV     1   --> A              
     e( 25 - 25) =      4.19292  eV     1   --> A              
     e( 26 - 26) =      4.81507  eV     1   --> A              
     e( 27 - 27) =      5.12850  eV     1   --> A              
     e( 28 - 28) =      5.81212  eV     1   --> A              
     e( 29 - 29) =      6.54592  eV     1   --> A              
     e( 30 - 30) =      7.53688  eV     1   --> A              
     e( 31 - 31) =      8.56845  eV     1   --> A              
     e( 32 - 32) =      8.91916  eV     1   --> A              
     e( 33 - 33) =      9.25230  eV     1   --> A              
     e( 34 - 34) =     10.15543  eV     1   --> A              
     e( 35 - 35) =     10.36126  eV     1   --> A              
     e( 36 - 36) =     11.22171  eV     1   --> A              

 **************************************************************************

 **************************************************************************

                    xk=(   0.06667,   0.00000,   0.00000  )

     Band symmetry, C_1 (1)     point group:

     e(  1 -  1) =    -74.81908  eV     1   --> A              
     e(  2 -  2) =    -48.34932  eV     1   --> A              
     e(  3 -  3) =    -48.34908  eV     1   --> A              
     e(  4 -  5) =    -48.32336  eV     2   -->   2 A              
     e(  6 -  6) =    -48.31520  eV     1   --> A              
     e(  7 -  7) =    -39.08941  eV     1   --> A              
     e(  8 -  8) =    -38.87243  eV     1   --> A              
     e(  9 -  9) =    -38.86372  eV     1   --> A              
     e( 10 - 10) =    -15.66996  eV     1   --> A              
     e( 11 - 11) =    -14.35756  eV     1   --> A              
     e( 12 - 12) =     -7.18839  eV     1   --> A              
     e( 13 - 13) =     -3.66711  eV     1   --> A              
     e( 14 - 14) =     -3.31201  eV     1   --> A              
     e( 15 - 15) =     -3.23768  eV     1   --> A              
     e( 16 - 16) =     -1.77543  eV     1   --> A              
     e( 17 - 17) =     -1.74117  eV     1   --> A              
     e( 18 - 18) =     -1.21953  eV     1   --> A              
     e( 19 - 19) =      2.10957  eV     1   --> A              
     e( 20 - 20) =      2.22192  eV     1   --> A              
     e( 21 - 21) =      2.30620  eV     1   --> A              
     e( 22 - 22) =      2.42982  eV     1   --> A              
     e( 23 - 23) =      3.45974  eV     1   --> A              
     e( 24 - 24) =      3.93048  eV     1   --> A              
     e( 25 - 25) =      4.12384  eV     1   --> A              
     e( 26 - 26) =      4.75558  eV     1   --> A              
     e( 27 - 27) =      5.00842  eV     1   --> A              
     e( 28 - 28) =      5.71463  eV     1   --> A              
     e( 29 - 29) =      6.49262  eV     1   --> A              
     e( 30 - 30) =      7.48171  eV     1   --> A              
     e( 31 - 31) =      8.37063  eV     1   --> A              
     e( 32 - 32) =      8.86545  eV     1   --> A              
     e( 33 - 33) =      9.39541  eV     1   --> A              
     e( 34 - 34) =     10.11551  eV     1   --> A              
     e( 35 - 35) =     10.24071  eV     1   --> A              
     e( 36 - 36) =     11.41098  eV     1   --> A              

 **************************************************************************

 **************************************************************************

                    xk=(   0.04444,   0.00000,   0.00000  )

     Band symmetry, C_1 (1)     point group:

     e(  1 -  1) =    -74.81940  eV     1   --> A              
     e(  2 -  2) =    -48.34933  eV     1   --> A              
     e(  3 -  3) =    -48.34922  eV     1   --> A              
     e(  4 -  5) =    -48.32329  eV     2   -->   2 A              
     e(  6 -  6) =    -48.31529  eV     1   --> A              
     e(  7 -  7) =    -39.09058  eV     1   --> A              
     e(  8 -  8) =    -38.86614  eV     1   --> A              
     e(  9 -  9) =    -38.86223  eV     1   --> A              
     e( 10 - 10) =    -15.70144  eV     1   --> A              
     e( 11 - 11) =    -14.37354  eV     1   --> A              
     e( 12 - 12) =     -7.22832  eV     1   --> A              
     e( 13 - 13) =     -3.58252  eV     1   --> A              
     e( 14 - 14) =     -3.28830  eV     1   --> A              
     e( 15 - 15) =     -3.25930  eV     1   --> A              
     e( 16 - 16) =     -1.71832  eV     1   --> A              
     e( 17 - 17) =     -1.70615  eV     1   --> A              
     e( 18 - 18) =     -1.22499  eV     1   --> A              
     e( 19 - 19) =      2.24925  eV     1   --> A              
     e( 20 - 20) =      2.26911  eV     1   --> A              
     e( 21 - 21) =      2.33008  eV     1   --> A              
     e( 22 - 22) =      2.38849  eV     1   --> A              
     e( 23 - 23) =      3.40539  eV     1   --> A              
     e( 24 - 24) =      3.89137  eV     1   --> A              
     e( 25 - 25) =      4.06897  eV     1   --> A              
     e( 26 - 26) =      4.70926  eV     1   --> A              
     e( 27 - 27) =      4.91576  eV     1   --> A              
     e( 28 - 28) =      5.64853  eV     1   --> A              
     e( 29 - 29) =      6.45443  eV     1   --> A              
     e( 30 - 30) =      7.44215  eV     1   --> A              
     e( 31 - 31) =      8.21352  eV     1   --> A              
     e( 32 - 32) =      8.82739  eV     1   --> A              
     e( 33 - 33) =      9.52036  eV     1   --> A              
     e( 34 - 34) =     10.08873  eV     1   --> A              
     e( 35 - 35) =     10.14800  eV     1   --> A              
     e( 36 - 36) =     11.34675  eV     1   --> A              

 **************************************************************************

 **************************************************************************

                    xk=(   0.02222,   0.00000,   0.00000  )

     Band symmetry, C_1 (1)     point group:

     e(  1 -  1) =    -74.81959  eV     1   --> A              
     e(  2 -  3) =    -48.34931  eV     2   -->   2 A              
     e(  4 -  5) =    -48.32325  eV     2   -->   2 A              
     e(  6 -  6) =    -48.31533  eV     1   --> A              
     e(  7 -  7) =    -39.09128  eV     1   --> A              
     e(  8 -  8) =    -38.86232  eV     1   --> A              
     e(  9 -  9) =    -38.86133  eV     1   --> A              
     e( 10 - 10) =    -15.72041  eV     1   --> A              
     e( 11 - 11) =    -14.38318  eV     1   --> A              
     e( 12 - 12) =     -7.25245  eV     1   --> A              
     e( 13 - 13) =     -3.52662  eV     1   --> A              
     e( 14 - 14) =     -3.27872  eV     1   --> A              
     e( 15 - 15) =     -3.27250  eV     1   --> A              
     e( 16 - 16) =     -1.68432  eV     1   --> A              
     e( 17 - 17) =     -1.68178  eV     1   --> A              
     e( 18 - 18) =     -1.23040  eV     1   --> A              
     e( 19 - 19) =      2.29935  eV     1   --> A              
     e( 20 - 20) =      2.31613  eV     1   --> A              
     e( 21 - 21) =      2.35419  eV     1   --> A              
     e( 22 - 22) =      2.38410  eV     1   --> A              
     e( 23 - 23) =      3.36771  eV     1   --> A              
     e( 24 - 24) =      3.86753  eV     1   --> A              
     e( 25 - 25) =      4.03280  eV     1   --> A              
     e( 26 - 26) =      4.67834  eV     1   --> A              
     e( 27 - 27) =      4.85903  eV     1   --> A              
     e( 28 - 28) =      5.61038  eV     1   --> A              
     e( 29 - 29) =      6.43147  eV     1   --> A              
     e( 30 - 30) =      7.41822  eV     1   --> A              
     e( 31 - 31) =      8.11284  eV     1   --> A              
     e( 32 - 32) =      8.80465  eV     1   --> A              
     e( 33 - 33) =      9.60651  eV     1   --> A              
     e( 34 - 34) =     10.07478  eV     1   --> A              
     e( 35 - 35) =     10.09032  eV     1   --> A              
     e( 36 - 36) =     11.28662  eV     1   --> A              

 **************************************************************************

 **************************************************************************

                    xk=(   0.00000,   0.00000,   0.00000  )

     point group C_3v (3m)  
     there are  3 classes
     the character table:

       E     2C3   3s_v 
A_1    1.00  1.00  1.00
A_2    1.00  1.00 -1.00
E      2.00 -1.00  0.00

     the symmetry operations in each class and the name of the first element:

     E        1
                                                                 
     2C3      2    3
                                                                 
     3s_v     4    5    6
                                                                 

     Band symmetry, C_3v (3m)   point group:

     e(  1 -  1) =    -74.81966  eV     1   --> A_1  L_1       
     e(  2 -  3) =    -48.34932  eV     2   --> E    L_3       
     e(  4 -  5) =    -48.32326  eV     2   --> E    L_3       
     e(  6 -  6) =    -48.31539  eV     1   --> A_1  L_1       
     e(  7 -  7) =    -39.09152  eV     1   --> A_1  L_1       
     e(  8 -  9) =    -38.86104  eV     2   --> E    L_3       
     e( 10 - 10) =    -15.72675  eV     1   --> A_1  L_1       
     e( 11 - 11) =    -14.38640  eV     1   --> A_1  L_1       
     e( 12 - 12) =     -7.26053  eV     1   --> A_1  L_1       
     e( 13 - 13) =     -3.50669  eV     1   --> A_1  L_1       
     e( 14 - 15) =     -3.27683  eV     2   --> E    L_3       
     e( 16 - 17) =     -1.67302  eV     2   --> E    L_3       
     e( 18 - 18) =     -1.23265  eV     1   --> A_1  L_1       
     e( 19 - 20) =      2.31092  eV     2   --> E    L_3       
     e( 21 - 22) =      2.38708  eV     2   --> E    L_3       
     e( 23 - 23) =      3.35380  eV     1   --> A_1  L_1       
     e( 24 - 24) =      3.85948  eV     1   --> A_1  L_1       
     e( 25 - 25) =      4.02005  eV     1   --> A_1  L_1       
     e( 26 - 26) =      4.66721  eV     1   --> A_1  L_1       
     e( 27 - 27) =      4.84026  eV     1   --> A_1  L_1       
     e( 28 - 28) =      5.59790  eV     1   --> A_1  L_1       
     e( 29 - 29) =      6.42381  eV     1   --> A_1  L_1       
     e( 30 - 30) =      7.41019  eV     1   --> A_1  L_1       
     e( 31 - 31) =      8.07818  eV     1   --> A_1  L_1       
     e( 32 - 32) =      8.79707  eV     1   --> A_1  L_1       
     e( 33 - 33) =      9.63726  eV     1   --> A_1  L_1       
     e( 34 - 35) =     10.07089  eV     2   --> E    L_3       
     e( 36 - 36) =     11.26334  eV     1   --> A_1  L_1       

 **************************************************************************

     BANDS        :      5.89s CPU      6.52s WALL


   This run was terminated on:  11:13:25  31Jan2023            

=------------------------------------------------------------------------------=
   JOB DONE.
=------------------------------------------------------------------------------=
