
     Program PWSCF v.7.1 starts on 31Jan2023 at 11:11:53 

     This program is part of the open-source Quantum ESPRESSO suite
     for quantum simulation of materials; please cite
         "P. Giannozzi et al., J. Phys.:Condens. Matter 21 395502 (2009);
         "P. Giannozzi et al., J. Phys.:Condens. Matter 29 465901 (2017);
         "P. Giannozzi et al., J. Chem. Phys. 152 154105 (2020);
          URL http://www.quantum-espresso.org", 
     in publications or presentations arising from this work. More details at
     http://www.quantum-espresso.org/quote

     Parallel version (MPI), running on    12 processors

     MPI processes distributed on     1 nodes
     127388 MiB available memory on the printing compute node when the environment starts

     Waiting for input...
     Reading input from standard input

     Current dimensions of program PWSCF are:
     Max number of different atomic species (ntypx) = 10
     Max number of k-points (npk) =  40000
     Max angular momentum in pseudopotentials (lmaxx) =  4

     Atomic positions and unit cell read from directory:
     ./work/WSSe.save/
     Atomic positions from file used, from input discarded

     file W.pbe-spn-kjpaw_psl.1.0.0.UPF: wavefunction(s)  6S 5P 5D renormalized
     file S.pbe-n-kjpaw_psl.1.0.0.UPF: wavefunction(s)  3S 3P renormalized
     file Se.pbe-dn-kjpaw_psl.1.0.0.UPF: wavefunction(s)  4S 4P 3D renormalized
     Message from routine setup:
     using ibrav=0 with symmetry is DISCOURAGED, use correct ibrav instead

     R & G space division:  proc/nbgrp/npool/nimage =      12
     Subspace diagonalization in iterative solution of the eigenvalue problem:
     a serial algorithm will be used


     Parallelization info
     --------------------
     sticks:   dense  smooth     PW     G-vecs:    dense   smooth      PW
     Min          49      49     14                 7632     7632    1212
     Max          51      51     15                 7669     7669    1242
     Sum         595     595    169                91835    91835   14719

     Using Slab Decomposition



     bravais-lattice index     =            0
     lattice parameter (alat)  =       5.9796  a.u.
     unit-cell volume          =    1462.8984 (a.u.)^3
     number of atoms/cell      =            3
     number of atomic types    =            3
     number of electrons       =        36.00
     number of Kohn-Sham states=           36
     kinetic-energy cutoff     =      60.0000  Ry
     charge density cutoff     =     240.0000  Ry
     Exchange-correlation= SLA  PW   PBX  PBC
                           (   1   4   3   4   0   0   0)

     celldm(1)=   5.979603  celldm(2)=   0.000000  celldm(3)=   0.000000
     celldm(4)=   0.000000  celldm(5)=   0.000000  celldm(6)=   0.000000

     crystal axes: (cart. coord. in units of alat)
               a(1) = (   1.000000   0.000000   0.000000 )  
               a(2) = (  -0.500000   0.866025   0.000000 )  
               a(3) = (   0.000000   0.000000   7.900718 )  

     reciprocal axes: (cart. coord. in units 2 pi/alat)
               b(1) = (  1.000000  0.577350 -0.000000 )  
               b(2) = (  0.000000  1.154701  0.000000 )  
               b(3) = (  0.000000 -0.000000  0.126571 )  


     PseudoPot. # 1 for W  read from file:
     /home/mainadmin/research/danu/pseudo/W.pbe-spn-kjpaw_psl.1.0.0.UPF
     MD5 check sum: 03c3df5b60893f488392c7401945500a
     Pseudo is Projector augmented-wave + core cor, Zval = 14.0
     Generated using &quot;atomic&quot; code by A. Dal Corso  v.6.2.2
     Shape of augmentation charge: PSQ
     Using radial grid of 1273 points,  6 beta functions with: 
                l(1) =   0
                l(2) =   0
                l(3) =   1
                l(4) =   1
                l(5) =   2
                l(6) =   2
     Q(r) pseudized with 0 coefficients 


     PseudoPot. # 2 for S  read from file:
     /home/mainadmin/research/danu/pseudo/S.pbe-n-kjpaw_psl.1.0.0.UPF
     MD5 check sum: fb45dfebcf3e72a4e1bd4a866ec2e262
     Pseudo is Projector augmented-wave + core cor, Zval =  6.0
     Generated using &quot;atomic&quot; code by A. Dal Corso  v.6.3
     Shape of augmentation charge: PSQ
     Using radial grid of 1151 points,  6 beta functions with: 
                l(1) =   0
                l(2) =   0
                l(3) =   1
                l(4) =   1
                l(5) =   2
                l(6) =   2
     Q(r) pseudized with 0 coefficients 


     PseudoPot. # 3 for Se read from file:
     /home/mainadmin/research/danu/pseudo/Se.pbe-dn-kjpaw_psl.1.0.0.UPF
     MD5 check sum: ac240dd2bae32a30e0bf3a38df9c8785
     Pseudo is Projector augmented-wave + core cor, Zval = 16.0
     Generated using &quot;atomic&quot; code by A. Dal Corso  v.6.3
     Shape of augmentation charge: PSQ
     Using radial grid of 1211 points,  6 beta functions with: 
                l(1) =   0
                l(2) =   0
                l(3) =   1
                l(4) =   1
                l(5) =   2
                l(6) =   2
     Q(r) pseudized with 0 coefficients 


     atomic species   valence    mass     pseudopotential
        W             14.00   183.84000     W ( 1.00)
        S              6.00    32.06500     S ( 1.00)
        Se            16.00    78.96000     Se( 1.00)

      6 Sym. Ops. (no inversion) found



   Cartesian axes

     site n.     atom                  positions (alat units)
         1           Se  tau(   1) = (   0.5000000   0.2886751   4.4957047  )
         2           W   tau(   2) = (  -0.0000000   0.5773503   3.9245440  )
         3           S   tau(   3) = (   0.5000000   0.2886751  -4.4698899  )

     number of k points=    91
                       cart. coord. in units 2pi/alat
        k(    1) = (   0.0000000   0.0000000   0.0000000), wk =   0.0219780
        k(    2) = (   0.0166667  -0.0096225   0.0000000), wk =   0.0219780
        k(    3) = (   0.0333333  -0.0192450   0.0000000), wk =   0.0219780
        k(    4) = (   0.0500000  -0.0288675   0.0000000), wk =   0.0219780
        k(    5) = (   0.0666667  -0.0384900   0.0000000), wk =   0.0219780
        k(    6) = (   0.0833333  -0.0481125   0.0000000), wk =   0.0219780
        k(    7) = (   0.1000000  -0.0577350   0.0000000), wk =   0.0219780
        k(    8) = (   0.1166667  -0.0673575   0.0000000), wk =   0.0219780
        k(    9) = (   0.1333333  -0.0769800   0.0000000), wk =   0.0219780
        k(   10) = (   0.1500000  -0.0866025   0.0000000), wk =   0.0219780
        k(   11) = (   0.1666667  -0.0962250   0.0000000), wk =   0.0219780
        k(   12) = (   0.1833333  -0.1058475   0.0000000), wk =   0.0219780
        k(   13) = (   0.2000000  -0.1154701   0.0000000), wk =   0.0219780
        k(   14) = (   0.2166667  -0.1250926   0.0000000), wk =   0.0219780
        k(   15) = (   0.2333333  -0.1347151   0.0000000), wk =   0.0219780
        k(   16) = (   0.2500000  -0.1443376   0.0000000), wk =   0.0219780
        k(   17) = (   0.2666667  -0.1539601   0.0000000), wk =   0.0219780
        k(   18) = (   0.2833333  -0.1635826   0.0000000), wk =   0.0219780
        k(   19) = (   0.3000000  -0.1732051   0.0000000), wk =   0.0219780
        k(   20) = (   0.3166667  -0.1828276   0.0000000), wk =   0.0219780
        k(   21) = (   0.3333333  -0.1924501   0.0000000), wk =   0.0219780
        k(   22) = (   0.3500000  -0.2020726   0.0000000), wk =   0.0219780
        k(   23) = (   0.3666667  -0.2116951   0.0000000), wk =   0.0219780
        k(   24) = (   0.3833333  -0.2213176   0.0000000), wk =   0.0219780
        k(   25) = (   0.4000000  -0.2309401   0.0000000), wk =   0.0219780
        k(   26) = (   0.4166667  -0.2405626   0.0000000), wk =   0.0219780
        k(   27) = (   0.4333333  -0.2501851   0.0000000), wk =   0.0219780
        k(   28) = (   0.4500000  -0.2598076   0.0000000), wk =   0.0219780
        k(   29) = (   0.4666667  -0.2694301   0.0000000), wk =   0.0219780
        k(   30) = (   0.4833333  -0.2790526   0.0000000), wk =   0.0219780
        k(   31) = (   0.5000000  -0.2886751   0.0000000), wk =   0.0219780
        k(   32) = (   0.5055556  -0.2790526   0.0000000), wk =   0.0219780
        k(   33) = (   0.5111111  -0.2694301   0.0000000), wk =   0.0219780
        k(   34) = (   0.5166667  -0.2598076   0.0000000), wk =   0.0219780
        k(   35) = (   0.5222222  -0.2501851   0.0000000), wk =   0.0219780
        k(   36) = (   0.5277778  -0.2405626   0.0000000), wk =   0.0219780
        k(   37) = (   0.5333333  -0.2309401   0.0000000), wk =   0.0219780
        k(   38) = (   0.5388889  -0.2213176   0.0000000), wk =   0.0219780
        k(   39) = (   0.5444444  -0.2116951   0.0000000), wk =   0.0219780
        k(   40) = (   0.5500000  -0.2020726   0.0000000), wk =   0.0219780
        k(   41) = (   0.5555556  -0.1924501   0.0000000), wk =   0.0219780
        k(   42) = (   0.5611111  -0.1828276   0.0000000), wk =   0.0219780
        k(   43) = (   0.5666667  -0.1732051   0.0000000), wk =   0.0219780
        k(   44) = (   0.5722222  -0.1635826   0.0000000), wk =   0.0219780
        k(   45) = (   0.5777778  -0.1539601   0.0000000), wk =   0.0219780
        k(   46) = (   0.5833333  -0.1443376   0.0000000), wk =   0.0219780
        k(   47) = (   0.5888889  -0.1347151   0.0000000), wk =   0.0219780
        k(   48) = (   0.5944444  -0.1250926   0.0000000), wk =   0.0219780
        k(   49) = (   0.6000000  -0.1154701   0.0000000), wk =   0.0219780
        k(   50) = (   0.6055556  -0.1058475   0.0000000), wk =   0.0219780
        k(   51) = (   0.6111111  -0.0962250   0.0000000), wk =   0.0219780
        k(   52) = (   0.6166667  -0.0866025   0.0000000), wk =   0.0219780
        k(   53) = (   0.6222222  -0.0769800   0.0000000), wk =   0.0219780
        k(   54) = (   0.6277778  -0.0673575   0.0000000), wk =   0.0219780
        k(   55) = (   0.6333333  -0.0577350   0.0000000), wk =   0.0219780
        k(   56) = (   0.6388889  -0.0481125   0.0000000), wk =   0.0219780
        k(   57) = (   0.6444444  -0.0384900   0.0000000), wk =   0.0219780
        k(   58) = (   0.6500000  -0.0288675   0.0000000), wk =   0.0219780
        k(   59) = (   0.6555556  -0.0192450   0.0000000), wk =   0.0219780
        k(   60) = (   0.6611111  -0.0096225   0.0000000), wk =   0.0219780
        k(   61) = (   0.6666667   0.0000000   0.0000000), wk =   0.0219780
        k(   62) = (   0.6444444   0.0000000   0.0000000), wk =   0.0219780
        k(   63) = (   0.6222222   0.0000000   0.0000000), wk =   0.0219780
        k(   64) = (   0.6000000   0.0000000   0.0000000), wk =   0.0219780
        k(   65) = (   0.5777778   0.0000000   0.0000000), wk =   0.0219780
        k(   66) = (   0.5555556   0.0000000   0.0000000), wk =   0.0219780
        k(   67) = (   0.5333333   0.0000000   0.0000000), wk =   0.0219780
        k(   68) = (   0.5111111   0.0000000   0.0000000), wk =   0.0219780
        k(   69) = (   0.4888889   0.0000000   0.0000000), wk =   0.0219780
        k(   70) = (   0.4666667   0.0000000   0.0000000), wk =   0.0219780
        k(   71) = (   0.4444444   0.0000000   0.0000000), wk =   0.0219780
        k(   72) = (   0.4222222   0.0000000   0.0000000), wk =   0.0219780
        k(   73) = (   0.4000000   0.0000000   0.0000000), wk =   0.0219780
        k(   74) = (   0.3777778   0.0000000   0.0000000), wk =   0.0219780
        k(   75) = (   0.3555556   0.0000000   0.0000000), wk =   0.0219780
        k(   76) = (   0.3333333   0.0000000   0.0000000), wk =   0.0219780
        k(   77) = (   0.3111111   0.0000000   0.0000000), wk =   0.0219780
        k(   78) = (   0.2888889   0.0000000   0.0000000), wk =   0.0219780
        k(   79) = (   0.2666667   0.0000000   0.0000000), wk =   0.0219780
        k(   80) = (   0.2444444   0.0000000   0.0000000), wk =   0.0219780
        k(   81) = (   0.2222222   0.0000000   0.0000000), wk =   0.0219780
        k(   82) = (   0.2000000   0.0000000   0.0000000), wk =   0.0219780
        k(   83) = (   0.1777778   0.0000000   0.0000000), wk =   0.0219780
        k(   84) = (   0.1555556   0.0000000   0.0000000), wk =   0.0219780
        k(   85) = (   0.1333333   0.0000000   0.0000000), wk =   0.0219780
        k(   86) = (   0.1111111   0.0000000   0.0000000), wk =   0.0219780
        k(   87) = (   0.0888889   0.0000000   0.0000000), wk =   0.0219780
        k(   88) = (   0.0666667   0.0000000   0.0000000), wk =   0.0219780
        k(   89) = (   0.0444444   0.0000000   0.0000000), wk =   0.0219780
        k(   90) = (   0.0222222   0.0000000   0.0000000), wk =   0.0219780
        k(   91) = (   0.0000000   0.0000000   0.0000000), wk =   0.0219780

     Dense  grid:    91835 G-vectors     FFT dimensions: (  30,  30, 240)

     Estimated max dynamical RAM per process >      29.69 MB

     Estimated total dynamical RAM >     356.25 MB

     Check: negative core charge=   -0.000001

     The potential is recalculated from file :
     ./work/WSSe.save/charge-density


     negative rho (up, down):  1.992E-03 0.000E+00
     Starting wfcs are   26 randomized atomic wfcs +   10 random wfcs
     Checking if some PAW data can be deallocated... 

     Band Structure Calculation
     Davidson diagonalization with overlap

     ethr =  2.78E-11,  avg # of iterations = 54.0

     total cpu time spent up to now is       84.4 secs

     End of band structure calculation

          k = 0.0000 0.0000 0.0000 ( 11595 PWs)   bands (ev):

   -74.8197 -48.3493 -48.3493 -48.3233 -48.3233 -48.3154 -39.0915 -38.8610
   -38.8610 -15.7267 -14.3864  -7.2605  -3.5067  -3.2768  -3.2768  -1.6730
    -1.6730  -1.2327   2.3109   2.3109   2.3871   2.3871   3.3538   3.8595
     4.0201   4.6672   4.8403   5.5979   6.4238   7.4102   8.0782   8.7971
     9.6373  10.0709  10.0709  11.2633

          k = 0.0167-0.0096 0.0000 ( 11585 PWs)   bands (ev):

   -74.8196 -48.3493 -48.3493 -48.3233 -48.3232 -48.3153 -39.0913 -38.8620
   -38.8613 -15.7220 -14.3840  -7.2545  -3.5217  -3.2781  -3.2736  -1.6814
    -1.6797  -1.2309   2.3019   2.3157   2.3616   2.3848   3.3643   3.8655
     4.0296   4.6756   4.8543   5.6072   6.4296   7.4162   8.1042   8.8028
     9.6141  10.0738  10.0854  11.2810

          k = 0.0333-0.0192 0.0000 ( 11579 PWs)   bands (ev):

   -74.8195 -48.3493 -48.3493 -48.3233 -48.3233 -48.3153 -39.0908 -38.8649
   -38.8619 -15.7078 -14.3767  -7.2364  -3.5645  -3.2841  -3.2642  -1.7060
    -1.6993  -1.2266   2.2663   2.2998   2.3223   2.3859   3.3934   3.8835
     4.0572   4.6993   4.8968   5.6357   6.4468   7.4342   8.1805   8.8198
     9.5480  10.0841  10.1288  11.3282

          k = 0.0500-0.0289 0.0000 ( 11563 PWs)   bands (ev):

   -74.8192 -48.3493 -48.3491 -48.3233 -48.3232 -48.3152 -39.0899 -38.8696
   -38.8630 -15.6841 -14.3647  -7.2063  -3.6304  -3.2987  -3.2488  -1.7451
    -1.7305  -1.2217   2.1652   2.2550   2.3098   2.4107   3.4362   3.9129
     4.0998   4.7353   4.9672   5.6845   6.4754   7.4639   8.3012   8.8483
     9.4483  10.1043  10.2000  11.3891

          k = 0.0667-0.0385 0.0000 ( 11565 PWs)   bands (ev):

   -74.8189 -48.3493 -48.3490 -48.3234 -48.3233 -48.3152 -39.0887 -38.8762
   -38.8646 -15.6512 -14.3480  -7.1646  -3.7153  -3.3249  -3.2285  -1.7969
    -1.7716  -1.2188   2.0285   2.2136   2.2781   2.4588   3.4891   3.9537
     4.1541   4.7815   5.0610   5.7557   6.5154   7.5052   8.4564   8.8886
     9.3279  10.1350  10.2976  11.3642

          k = 0.0833-0.0481 0.0000 ( 11547 PWs)   bands (ev):

   -74.8185 -48.3493 -48.3488 -48.3234 -48.3233 -48.3151 -39.0872 -38.8845
   -38.8665 -15.6091 -14.3267  -7.1117  -3.8164  -3.3642  -3.2043  -1.8597
    -1.8199  -1.2205   1.8758   2.1722   2.2352   2.5215   3.5504   4.0055
     4.2177   4.8374   5.1705   5.8515   6.5666   7.5583   8.6287   8.9416
     9.2022  10.1756  10.4195  11.1212

          k = 0.1000-0.0577 0.0000 ( 11547 PWs)   bands (ev):

   -74.8180 -48.3493 -48.3486 -48.3235 -48.3233 -48.3150 -39.0853 -38.8945
   -38.8688 -15.5581 -14.3009  -7.0479  -3.9311  -3.4172  -3.1778  -1.9322
    -1.8722  -1.2291   1.7169   2.1352   2.1849   2.5945   3.6201   4.0682
     4.2893   4.9029   5.2866   5.9727   6.6288   7.6234   8.7797   8.9990
     9.1093  10.2248  10.5632  10.8756

          k = 0.1167-0.0674 0.0000 ( 11545 PWs)   bands (ev):

   -74.8174 -48.3493 -48.3484 -48.3236 -48.3233 -48.3148 -39.0832 -38.9060
   -38.8715 -15.4984 -14.2708  -6.9741  -4.0576  -3.4840  -3.1514  -2.0135
    -1.9250  -1.2466   1.5596   2.1069   2.1294   2.6748   3.6982   4.1419
     4.3684   4.9784   5.4024   6.1164   6.7016   7.7017   8.8150   9.0119
     9.1719  10.2815  10.6696  10.7255

          k = 0.1333-0.0770 0.0000 ( 11527 PWs)   bands (ev):

   -74.8167 -48.3493 -48.3481 -48.3237 -48.3233 -48.3147 -39.0808 -38.9188
   -38.8745 -15.4304 -14.2365  -6.8910  -4.1937  -3.5645  -3.1277  -2.1025
    -1.9742  -1.2747   1.4108   2.0711   2.0908   2.7597   3.7851   4.2265
     4.4550   5.0637   5.5148   6.2747   6.7842   7.7949   8.7304   9.0511
     9.2856  10.3444  10.5433  10.9030

          k = 0.1500-0.0866 0.0000 ( 11509 PWs)   bands (ev):

   -74.8160 -48.3492 -48.3478 -48.3238 -48.3234 -48.3145 -39.0782 -38.9330
   -38.8778 -15.3543 -14.1983  -6.7998  -4.3374  -3.6584  -3.1103  -2.1979
    -2.0154  -1.3144   1.2762   2.0119   2.0891   2.8471   3.8810   4.3219
     4.5492   5.1590   5.6235   6.4359   6.8750   7.9052   8.6298   9.0573
     9.3640  10.4119  10.5363  11.0916

          k = 0.1667-0.0962 0.0000 ( 11519 PWs)   bands (ev):

   -74.8152 -48.3493 -48.3474 -48.3240 -48.3234 -48.3144 -39.0754 -38.9482
   -38.8814 -15.2707 -14.1565  -6.7020  -4.4867  -3.7656  -3.1027  -2.2978
    -2.0444  -1.3663   1.1607   1.9538   2.1027   2.9347   3.9859   4.4279
     4.6510   5.2639   5.7293   6.5867   6.9716   8.0347   8.5417   8.9824
     9.4307  10.4805  10.6399  11.2867

          k = 0.1833-0.1058 0.0000 ( 11511 PWs)   bands (ev):

   -74.8144 -48.3493 -48.3471 -48.3241 -48.3235 -48.3142 -39.0723 -38.9643
   -38.8852 -15.1800 -14.1113  -6.5995  -4.6393  -3.8859  -3.1078  -2.3999
    -2.0579  -1.4302   1.0680   1.8986   2.1314   3.0209   4.0997   4.5446
     4.7603   5.3782   5.8324   6.7154   7.0711   8.1818   8.4742   8.8381
     9.5148  10.5497  10.7919  11.4835

          k = 0.2000-0.1155 0.0000 ( 11501 PWs)   bands (ev):

   -74.8135 -48.3493 -48.3467 -48.3242 -48.3235 -48.3140 -39.0692 -38.9811
   -38.8891 -15.0826 -14.0631  -6.4950  -4.7923  -4.0189  -3.1271  -2.5016
    -2.0541  -1.5048   1.0004   1.8483   2.1741   3.1042   4.2222   4.6717
     4.8769   5.5014   5.9319   6.8136   7.1721   8.3234   8.4385   8.6758
     9.6139  10.6187  10.9312  11.5900

          k = 0.2167-0.1251 0.0000 ( 11501 PWs)   bands (ev):

   -74.8126 -48.3494 -48.3463 -48.3243 -48.3235 -48.3138 -39.0659 -38.9985
   -38.8933 -14.9793 -14.0122  -6.3924  -4.9423  -4.1635  -3.1601  -2.6004
    -2.0340  -1.5878   0.9586   1.8045   2.2290   3.1832   4.3529   4.8091
     5.0003   5.6329   6.0252   6.8791   7.2738   8.3285   8.4589   8.6215
     9.7204  10.6861  11.0248  11.5385

          k = 0.2333-0.1347 0.0000 ( 11501 PWs)   bands (ev):

   -74.8117 -48.3494 -48.3459 -48.3245 -48.3236 -48.3136 -39.0626 -39.0162
   -38.8974 -14.8707 -13.9591  -6.2976  -5.0843  -4.3183  -3.2045  -2.6941
    -2.0000  -1.6756   0.9419   1.7688   2.2940   3.2571   4.4910   4.9565
     5.1296   5.7716   6.1072   6.9188   7.3693   8.2245   8.4210   8.7683
     9.8282  10.7481  11.0753  11.4795

          k = 0.2500-0.1443 0.0000 ( 11487 PWs)   bands (ev):

   -74.8108 -48.3494 -48.3455 -48.3246 -48.3236 -48.3134 -39.0593 -39.0339
   -38.9017 -14.7575 -13.9042  -6.2199  -5.2104  -4.4812  -3.2575  -2.7809
    -1.9557  -1.7643   0.9487   1.7425   2.3667   3.3251   4.6353   5.1135
     5.2635   5.9161   6.1711   6.9467   7.4393   8.1220   8.4030   8.9367
     9.9309  10.7926  11.1052  11.4420

          k = 0.2667-0.1540 0.0000 ( 11491 PWs)   bands (ev):

   -74.8099 -48.3494 -48.3452 -48.3248 -48.3236 -48.3132 -39.0568 -39.0508
   -38.9059 -14.6406 -13.8481  -6.1730  -5.3085  -4.6492  -3.3159  -2.8599
    -1.9049  -1.8494   0.9767   1.7269   2.4446   3.3869   4.7839   5.2795
     5.3997   6.0629   6.2107   6.9784   7.4550   8.0892   8.3922   9.0943
    10.0173  10.8097  11.1243  11.4624

          k = 0.2833-0.1636 0.0000 ( 11495 PWs)   bands (ev):

   -74.8089 -48.3494 -48.3448 -48.3250 -48.3237 -48.3130 -39.0699 -39.0520
   -38.9101 -14.5210 -13.7912  -6.1729  -5.3654  -4.8187  -3.3771  -2.9304
    -1.9264  -1.8509   1.0231   1.7226   2.5253   3.4423   4.9336   5.4533
     5.5344   6.1836   6.2491   7.0237   7.4151   8.1394   8.3864   9.2353
    10.0697  10.8233  11.1130  11.5606

          k = 0.3000-0.1732 0.0000 ( 11509 PWs)   bands (ev):

   -74.8080 -48.3494 -48.3445 -48.3251 -48.3237 -48.3128 -39.0868 -39.0489
   -38.9142 -14.3997 -13.7343  -6.2256  -5.3791  -4.9844  -3.4389  -2.9923
    -1.9914  -1.7968   1.0854   1.7301   2.6063   3.4911   5.0786   5.6278
     5.6646   6.1925   6.3767   7.0832   7.3606   8.2361   8.3961   9.3564
    10.0751  10.8683  11.0725  11.7080

          k = 0.3167-0.1828 0.0000 ( 11495 PWs)   bands (ev):

   -74.8072 -48.3494 -48.3441 -48.3252 -48.3238 -48.3126 -39.1033 -39.0458
   -38.9181 -14.2779 -13.6779  -6.3202  -5.3710  -5.1342  -3.4997  -3.0456
    -2.0411  -1.7446   1.1611   1.7494   2.6853   3.5337   5.2072   5.7434
     5.8301   6.1922   6.5128   7.1493   7.3351   8.3288   8.4504   9.4497
    10.0467  10.9226  11.0517  11.7231

          k = 0.3333-0.1925 0.0000 ( 11471 PWs)   bands (ev):

   -74.8063 -48.3494 -48.3438 -48.3253 -48.3238 -48.3124 -39.1189 -39.0427
   -38.9219 -14.1572 -13.6228  -6.4396  -5.4040  -5.2207  -3.5581  -3.0907
    -2.0729  -1.6960   1.2477   1.7797   2.7599   3.5701   5.2956   5.7973
     6.0125   6.2408   6.6327   7.2170   7.3672   8.3943   8.5609   9.5015
    10.0173  10.9018  11.1410  11.5206

          k = 0.3500-0.2021 0.0000 ( 11461 PWs)   bands (ev):

   -74.8056 -48.3494 -48.3434 -48.3255 -48.3238 -48.3122 -39.1337 -39.0399
   -38.9254 -14.0389 -13.5697  -6.5707  -5.5181  -5.2146  -3.6131  -3.1283
    -2.0859  -1.6523   1.3430   1.8199   2.8283   3.6009   5.3070   5.8387
     6.1753   6.3574   6.7364   7.3044   7.4518   8.4631   8.6823   9.5104
    10.0054  10.8783  11.2712  11.3130

          k = 0.3667-0.2117 0.0000 ( 11463 PWs)   bands (ev):

   -74.8048 -48.3494 -48.3431 -48.3256 -48.3239 -48.3121 -39.1473 -39.0373
   -38.9287 -13.9249 -13.5193  -6.7047  -5.6493  -5.1850  -3.6640  -3.1592
    -2.0803  -1.6140   1.4449   1.8681   2.8885   3.6263   5.2308   5.9043
     6.2952   6.5308   6.8439   7.4259   7.5684   8.5384   8.7879   9.5070
     9.9996  10.9019  11.1082  11.3645

          k = 0.3833-0.2213 0.0000 ( 11451 PWs)   bands (ev):

   -74.8042 -48.3494 -48.3428 -48.3257 -48.3239 -48.3119 -39.1597 -39.0348
   -38.9317 -13.8169 -13.4724  -6.8359  -5.7737  -5.1572  -3.7100  -3.1843
    -2.0583  -1.5815   1.5510   1.9218   2.9391   3.6470   5.0979   5.9843
     6.3764   6.7332   6.9792   7.5744   7.7055   8.5966   8.8781   9.5290
     9.9920  10.9124  10.9664  11.1719

          k = 0.4000-0.2309 0.0000 ( 11462 PWs)   bands (ev):

   -74.8036 -48.3494 -48.3426 -48.3258 -48.3239 -48.3118 -39.1707 -39.0327
   -38.9343 -13.7171 -13.4298  -6.9596  -5.8855  -5.1361  -3.7507  -3.2044
    -2.0233  -1.5544   1.6590   1.9782   2.9793   3.6634   4.9395   6.0631
     6.4328   6.9444   7.1493   7.7357   7.8554   8.6168   8.9732   9.5843
     9.9964  10.7308  10.7847  11.1223

          k = 0.4167-0.2406 0.0000 ( 11462 PWs)   bands (ev):

   -74.8031 -48.3494 -48.3424 -48.3259 -48.3239 -48.3117 -39.1802 -39.0308
   -38.9366 -13.6276 -13.3922  -7.0718  -5.9825  -5.1220  -3.7857  -3.2204
    -1.9801  -1.5327   1.7659   2.0340   3.0086   3.6760   4.7751   6.1358
     6.4753   7.1490   7.3487   7.8893   8.0164   8.6253   9.0695   9.6638
    10.0201  10.4520  10.5682  10.8509

          k = 0.4333-0.2502 0.0000 ( 11454 PWs)   bands (ev):

   -74.8027 -48.3494 -48.3422 -48.3260 -48.3239 -48.3116 -39.1881 -39.0293
   -38.9385 -13.5506 -13.3604  -7.1692  -6.0632  -5.1138  -3.8147  -3.2329
    -1.9343  -1.5158   1.8681   2.0859   3.0271   3.6854   4.6189   6.2033
     6.5087   7.3219   7.5722   8.0170   8.1925   8.6707   9.1433   9.7696
     9.9872  10.1720  10.4285  10.5774

          k = 0.4500-0.2598 0.0000 ( 11458 PWs)   bands (ev):

   -74.8023 -48.3494 -48.3421 -48.3260 -48.3240 -48.3115 -39.1943 -39.0281
   -38.9400 -13.4881 -13.3349  -7.2486  -6.1267  -5.1097  -3.8375  -3.2422
    -1.8914  -1.5032   1.9602   2.1304   3.0359   3.6920   4.4824   6.2660
     6.5334   7.4303   7.8177   8.1385   8.3707   8.7763   9.1867   9.6980
     9.9408  10.0144  10.3156  10.3959

          k = 0.4667-0.2694 0.0000 ( 11444 PWs)   bands (ev):

   -74.8021 -48.3494 -48.3420 -48.3260 -48.3240 -48.3114 -39.1988 -39.0272
   -38.9411 -13.4420 -13.3162  -7.3074  -6.1725  -5.1080  -3.8539  -3.2486
    -1.8566  -1.4946   2.0355   2.1647   3.0373   3.6963   4.3760   6.3215
     6.5482   7.4695   8.0787   8.2731   8.5323   8.9303   9.2009   9.4065
     9.8019  10.0038  10.2325  10.2467

          k = 0.4833-0.2791 0.0000 ( 11442 PWs)   bands (ev):

   -74.8019 -48.3494 -48.3419 -48.3261 -48.3240 -48.3114 -39.2016 -39.0267
   -38.9418 -13.4137 -13.3049  -7.3435  -6.2002  -5.1076  -3.8638  -3.2524
    -1.8340  -1.4896   2.0858   2.1863   3.0352   3.6987   4.3082   6.3628
     6.5534   7.4715   8.3279   8.3973   8.6746   8.9911   9.1808   9.2472
     9.6389   9.7821  10.1817  10.3604

          k = 0.5000-0.2887 0.0000 ( 11424 PWs)   bands (ev):

   -74.8019 -48.3494 -48.3419 -48.3261 -48.3239 -48.3114 -39.2025 -39.0265
   -38.9420 -13.4042 -13.3010  -7.3557  -6.2094  -5.1075  -3.8671  -3.2537
    -1.8261  -1.4880   2.1036   2.1936   3.0339   3.6995   4.2849   6.3787
     6.5539   7.4684   8.4057   8.5296   8.7611   8.8415   9.1499   9.3475
     9.5590   9.6408  10.1646  10.3748

          k = 0.5056-0.2791 0.0000 ( 11452 PWs)   bands (ev):

   -74.8019 -48.3494 -48.3419 -48.3261 -48.3240 -48.3114 -39.2023 -39.0265
   -38.9422 -13.4034 -13.3006  -7.3538  -6.2095  -5.1067  -3.8702  -3.2527
    -1.8439  -1.4784   2.0949   2.2043   3.0367   3.6901   4.2874   6.3871
     6.5643   7.4721   8.4075   8.5315   8.7628   8.8432   9.1515   9.3492
     9.5592   9.6380  10.1520  10.3764

          k = 0.5111-0.2694 0.0000 ( 11460 PWs)   bands (ev):

   -74.8019 -48.3494 -48.3420 -48.3261 -48.3240 -48.3114 -39.2019 -39.0264
   -38.9430 -13.4010 -13.2991  -7.3480  -6.2097  -5.1043  -3.8796  -3.2498
    -1.8923  -1.4544   2.0756   2.2291   3.0452   3.6626   4.2948   6.4114
     6.5957   7.4836   8.4130   8.5370   8.7681   8.8482   9.1563   9.3541
     9.5586   9.6298  10.1193  10.3811

          k = 0.5167-0.2598 0.0000 ( 11464 PWs)   bands (ev):

   -74.8019 -48.3494 -48.3420 -48.3261 -48.3240 -48.3114 -39.2013 -39.0263
   -38.9444 -13.3970 -13.2967  -7.3383  -6.2102  -5.1002  -3.8946  -3.2454
    -1.9625  -1.4243   2.0532   2.2606   3.0593   3.6187   4.3070   6.4492
     6.6482   7.5031   8.4219   8.5463   8.7767   8.8566   9.1644   9.3615
     9.5509   9.6201  10.0780  10.3888

          k = 0.5222-0.2502 0.0000 ( 11476 PWs)   bands (ev):

   -74.8018 -48.3494 -48.3420 -48.3261 -48.3240 -48.3114 -39.2004 -39.0262
   -38.9462 -13.3915 -13.2933  -7.3249  -6.2109  -5.0946  -3.9147  -3.2398
    -2.0484  -1.3934   2.0300   2.2953   3.0790   3.5611   4.3235   6.4981
     6.7205   7.5313   8.4341   8.5593   8.7884   8.8682   9.1754   9.3691
     9.5261   9.6179  10.0402  10.3995

          k = 0.5278-0.2406 0.0000 ( 11466 PWs)   bands (ev):

   -74.8018 -48.3493 -48.3421 -48.3260 -48.3240 -48.3114 -39.1992 -39.0260
   -38.9486 -13.3845 -13.2890  -7.3076  -6.2120  -5.0875  -3.9392  -3.2335
    -2.1465  -1.3641   2.0068   2.3317   3.1041   3.4928   4.3442   6.5560
     6.8102   7.5693   8.4491   8.5760   8.8028   8.8828   9.1888   9.3683
     9.4892   9.6260  10.0142  10.4130

          k = 0.5333-0.2309 0.0000 ( 11468 PWs)   bands (ev):

   -74.8017 -48.3492 -48.3421 -48.3260 -48.3241 -48.3114 -39.1978 -39.0258
   -38.9514 -13.3761 -13.2839  -7.2866  -6.2135  -5.0790  -3.9670  -3.2271
    -2.2544  -1.3374   1.9836   2.3686   3.1346   3.4166   4.3686   6.6216
     6.9133   7.6184   8.4662   8.5964   8.8186   8.9001   9.2028   9.3374
     9.4712   9.6410  10.0029  10.4296

          k = 0.5389-0.2213 0.0000 ( 11470 PWs)   bands (ev):

   -74.8016 -48.3491 -48.3422 -48.3260 -48.3241 -48.3114 -39.1962 -39.0256
   -38.9547 -13.3662 -13.2779  -7.2619  -6.2156  -5.0692  -3.9975  -3.2211
    -2.3706  -1.3134   1.9602   2.4046   3.1706   3.3356   4.3966   6.6937
     7.0253   7.6805   8.4837   8.6205   8.8332   8.9200   9.2062   9.2880
     9.4831   9.6607  10.0050  10.4491

          k = 0.5444-0.2117 0.0000 ( 11460 PWs)   bands (ev):

   -74.8016 -48.3490 -48.3422 -48.3260 -48.3241 -48.3114 -39.1943 -39.0253
   -38.9585 -13.3551 -13.2710  -7.2337  -6.2184  -5.0582  -4.0296  -3.2157
    -2.4939  -1.2919   1.9365   2.4384   3.2098   3.2547   4.4279   6.7706
     7.1415   7.7576   8.4982   8.6485   8.8405   8.9425   9.1700   9.2797
     9.5099   9.6843  10.0182  10.4715

          k = 0.5500-0.2021 0.0000 ( 11468 PWs)   bands (ev):

   -74.8015 -48.3489 -48.3423 -48.3260 -48.3242 -48.3114 -39.1921 -39.0250
   -38.9627 -13.3427 -13.2635  -7.2018  -6.2220  -5.0463  -4.0627  -3.2113
    -2.6230  -1.2723   1.9122   2.4685   3.1641   3.2645   4.4620   6.8505
     7.2577   7.8508   8.5027   8.6802   8.8331   8.9689   9.1312   9.3013
     9.5452   9.7115  10.0404  10.4968

          k = 0.5556-0.1925 0.0000 ( 11458 PWs)   bands (ev):

   -74.8014 -48.3488 -48.3423 -48.3260 -48.3242 -48.3114 -39.1897 -39.0246
   -38.9673 -13.3291 -13.2552  -7.1665  -6.2265  -5.0336  -4.0961  -3.2082
    -2.7567  -1.2543   1.8869   2.4934   3.0826   3.3184   4.4987   6.9309
     7.3713   7.9594   8.4852   8.7160   8.8163   9.0012   9.1228   9.3316
     9.5874   9.7420  10.0701  10.5250

          k = 0.5611-0.1828 0.0000 ( 11454 PWs)   bands (ev):

   -74.8013 -48.3486 -48.3424 -48.3259 -48.3242 -48.3114 -39.1871 -39.0243
   -38.9723 -13.3145 -13.2462  -7.1279  -6.2321  -5.0203  -4.1289  -3.2068
    -2.8940  -1.2373   1.8605   2.5115   3.0047   3.3794   4.5375   7.0092
     7.4814   8.0772   8.4388   8.7563   8.8124   9.0399   9.1414   9.3670
     9.6360   9.7759  10.1064  10.5561

          k = 0.5667-0.1732 0.0000 ( 11454 PWs)   bands (ev):

   -74.8012 -48.3485 -48.3425 -48.3259 -48.3243 -48.3113 -39.1843 -39.0239
   -38.9777 -13.2990 -13.2367  -7.0861  -6.2388  -5.0067  -4.1607  -3.2075
    -3.0333  -1.2208   1.8325   2.5207   2.9340   3.4467   4.5780   7.0822
     7.5883   8.1760   8.3942   8.8017   8.8306   9.0843   9.1773   9.4067
     9.6913   9.8131  10.1488  10.5898

          k = 0.5722-0.1636 0.0000 ( 11462 PWs)   bands (ev):

   -74.8011 -48.3483 -48.3426 -48.3259 -48.3243 -48.3113 -39.1812 -39.0235
   -38.9834 -13.2828 -13.2266  -7.0411  -6.2469  -4.9931  -4.1908  -3.2154
    -3.1686  -1.2044   1.8029   2.5184   2.8739   3.5197   4.6196   7.1460
     7.6921   8.1706   8.4484   8.8530   8.8656   9.1336   9.2257   9.4506
     9.7536   9.8538  10.1972  10.6261

          k = 0.5778-0.1540 0.0000 ( 11442 PWs)   bands (ev):

   -74.8010 -48.3482 -48.3427 -48.3259 -48.3243 -48.3113 -39.1779 -39.0231
   -38.9894 -13.2660 -13.2160  -6.9932  -6.2562  -4.9798  -4.2190  -3.3215
    -3.2078  -1.1876   1.7715   2.5025   2.8278   3.5978   4.6620   7.1959
     7.7900   8.0985   8.5764   8.9046   8.9181   9.1867   9.2849   9.4985
     9.8225   9.8988  10.2519  10.6648

          k = 0.5833-0.1443 0.0000 ( 11434 PWs)   bands (ev):

   -74.8009 -48.3480 -48.3428 -48.3258 -48.3244 -48.3113 -39.1744 -39.0227
   -38.9957 -13.2488 -13.2050  -6.9425  -6.2669  -4.9674  -4.2448  -3.4610
    -3.2145  -1.1700   1.7382   2.4724   2.7972   3.6800   4.7046   7.2248
     7.8646   8.0463   8.7147   8.9551   8.9881   9.2430   9.3544   9.5505
     9.8956   9.9507  10.3132  10.7053

          k = 0.5889-0.1347 0.0000 ( 11438 PWs)   bands (ev):

   -74.8008 -48.3478 -48.3429 -48.3258 -48.3245 -48.3113 -39.1708 -39.0223
   -39.0022 -13.2315 -13.1935  -6.8893  -6.2789  -4.9562  -4.2682  -3.5993
    -3.2220  -1.1513   1.7031   2.4312   2.7801   3.7655   4.7469   7.2239
     7.8752   8.0777   8.8443   9.0092   9.0727   9.3026   9.4337   9.6067
     9.9641  10.0179  10.3821  10.7471

          k = 0.5944-0.1251 0.0000 ( 11436 PWs)   bands (ev):

   -74.8006 -48.3476 -48.3430 -48.3258 -48.3245 -48.3113 -39.1669 -39.0219
   -39.0089 -13.2144 -13.1816  -6.8336  -6.2921  -4.9472  -4.2892  -3.7339
    -3.2310  -1.1314   1.6665   2.3834   2.7728   3.8532   4.7882   7.1870
     7.8610   8.1640   8.9565   9.0672   9.1732   9.3658   9.5221   9.6671
    10.0230  10.1039  10.4599  10.7890

          k = 0.6000-0.1155 0.0000 ( 11428 PWs)   bands (ev):

   -74.8005 -48.3474 -48.3431 -48.3257 -48.3246 -48.3113 -39.1629 -39.0215
   -39.0157 -13.1979 -13.1689  -6.7759  -6.3064  -4.9412  -4.3084  -3.8625
    -3.2417  -1.1101   1.6284   2.3330   2.7719   3.9422   4.8282   7.1169
     7.8644   8.2618   9.0502   9.1297   9.2853   9.4332   9.6187   9.7319
    10.0786  10.1990  10.5478  10.8294

          k = 0.6056-0.1058 0.0000 ( 11428 PWs)   bands (ev):

   -74.8004 -48.3472 -48.3433 -48.3257 -48.3246 -48.3113 -39.1586 -39.0228
   -39.0209 -13.1826 -13.1555  -6.7164  -6.3215  -4.9394  -4.3268  -3.9820
    -3.2538  -1.0873   1.5895   2.2827   2.7754   4.0313   4.8664   7.0237
     7.8867   8.3612   9.1297   9.1983   9.3995   9.5066   9.7224   9.8015
    10.1345  10.2956  10.6458  10.8654

          k = 0.6111-0.0962 0.0000 ( 11426 PWs)   bands (ev):

   -74.8003 -48.3470 -48.3434 -48.3257 -48.3247 -48.3112 -39.1543 -39.0297
   -39.0206 -13.1687 -13.1412  -6.6554  -6.3371  -4.9437  -4.3468  -4.0876
    -3.2673  -1.0632   1.5501   2.2344   2.7818   4.1193   4.9024   6.9178
     7.9209   8.4597   9.1994   9.2736   9.5067   9.5884   9.8305   9.8788
    10.1913  10.3889  10.7507  10.8933

          k = 0.6167-0.0866 0.0000 ( 11424 PWs)   bands (ev):

   -74.8002 -48.3468 -48.3436 -48.3256 -48.3247 -48.3112 -39.1498 -39.0367
   -39.0203 -13.1564 -13.1263  -6.5936  -6.3531  -4.9563  -4.3731  -4.1720
    -3.2820  -1.0380   1.5109   2.1891   2.7903   4.2052   4.9357   6.8071
     7.9611   8.5567   9.2628   9.3542   9.6023   9.6798   9.9291   9.9773
    10.2487  10.4766  10.8482  10.9168

          k = 0.6222-0.0770 0.0000 ( 11422 PWs)   bands (ev):

   -74.8001 -48.3466 -48.3437 -48.3256 -48.3248 -48.3112 -39.1452 -39.0437
   -39.0199 -13.1455 -13.1113  -6.5314  -6.3689  -4.9794  -4.4099  -4.2278
    -3.2974  -1.0120   1.4725   2.1474   2.8004   4.2876   4.9661   6.6968
     8.0034   8.6525   9.3222   9.4389   9.6899   9.7761  10.0126  10.1010
    10.3058  10.5580  10.8755  10.9878

          k = 0.6278-0.0674 0.0000 ( 11426 PWs)   bands (ev):

   -74.8000 -48.3464 -48.3438 -48.3256 -48.3248 -48.3112 -39.1405 -39.0507
   -39.0196 -13.1358 -13.0968  -6.4699  -6.3841  -5.0146  -4.4531  -4.2572
    -3.3133  -0.9858   1.4355   2.1101   2.8115   4.3649   4.9935   6.5905
     8.0452   8.7473   9.3780   9.5267   9.7753   9.8720  10.0932  10.2345
    10.3608  10.6325  10.8535  11.0816

          k = 0.6333-0.0577 0.0000 ( 11438 PWs)   bands (ev):

   -74.7999 -48.3463 -48.3440 -48.3255 -48.3249 -48.3112 -39.1357 -39.0574
   -39.0193 -13.1272 -13.0831  -6.4136  -6.3947  -5.0615  -4.4922  -4.2702
    -3.3291  -0.9601   1.4009   2.0773   2.8230   4.4358   5.0177   6.4914
     8.0847   8.8414   9.4295   9.6173   9.8612   9.9655  10.1730  10.3683
    10.4122  10.6988  10.8199  11.1637

          k = 0.6389-0.0481 0.0000 ( 11450 PWs)   bands (ev):

   -74.7999 -48.3461 -48.3442 -48.3255 -48.3250 -48.3112 -39.1310 -39.0640
   -39.0190 -13.1198 -13.0708  -6.4143  -6.3500  -5.1164  -4.5216  -4.2749
    -3.3443  -0.9358   1.3695   2.0495   2.8344   4.4985   5.0387   6.4020
     8.1206   8.9351   9.4749   9.7101   9.9480  10.0554  10.2504  10.4399
    10.5106  10.7539  10.7930  11.2175

          k = 0.6444-0.0385 0.0000 ( 11440 PWs)   bands (ev):

   -74.7998 -48.3459 -48.3443 -48.3255 -48.3250 -48.3112 -39.1263 -39.0701
   -39.0188 -13.1135 -13.0600  -6.4257  -6.2977  -5.1738  -4.5414  -4.2752
    -3.3583  -0.9136   1.3421   2.0268   2.8451   4.5513   5.0563   6.3250
     8.1518   9.0283   9.5109   9.8045  10.0345  10.1390  10.3197  10.4622
    10.6298  10.7708  10.8172  11.2015

          k = 0.6500-0.0289 0.0000 ( 11448 PWs)   bands (ev):

   -74.7997 -48.3457 -48.3445 -48.3255 -48.3251 -48.3112 -39.1219 -39.0758
   -39.0186 -13.1085 -13.0512  -6.4354  -6.2521  -5.2274  -4.5537  -4.2733
    -3.3704  -0.8948   1.3197   2.0092   2.8545   4.5931   5.0702   6.2627
     8.1774   9.1202   9.5330   9.8993  10.1156  10.2095  10.3706  10.4844
    10.7053  10.7917  10.8782  11.1035

          k = 0.6556-0.0192 0.0000 ( 11462 PWs)   bands (ev):

   -74.7997 -48.3456 -48.3446 -48.3254 -48.3251 -48.3112 -39.1180 -39.0805
   -39.0185 -13.1048 -13.0445  -6.4429  -6.2166  -5.2711  -4.5606  -4.2709
    -3.3799  -0.8802   1.3031   1.9968   2.8619   4.6228   5.0801   6.2171
     8.1966   9.2090   9.5354   9.9919  10.1699  10.2646  10.4123  10.5207
    10.7251  10.8234  10.9519  10.9709

          k = 0.6611-0.0096 0.0000 ( 11452 PWs)   bands (ev):

   -74.7997 -48.3454 -48.3447 -48.3254 -48.3251 -48.3112 -39.1152 -39.0839
   -39.0184 -13.1025 -13.0404  -6.4476  -6.1941  -5.2996  -4.5639  -4.2688
    -3.3861  -0.8709   1.2929   1.9895   2.8667   4.6403   5.0858   6.1897
     8.2086   9.2878   9.5156  10.0766  10.1702  10.3233  10.4586  10.5578
    10.7140  10.7663  10.9260  11.0248

          k = 0.6667 0.0000 0.0000 ( 11448 PWs)   bands (ev):

   -74.7997 -48.3454 -48.3447 -48.3254 -48.3251 -48.3112 -39.1142 -39.0851
   -39.0184 -13.1017 -13.0389  -6.4493  -6.1865  -5.3095  -4.5648  -4.2679
    -3.3882  -0.8677   1.2895   1.9871   2.8684   4.6459   5.0876   6.1807
     8.2127   9.3288   9.4950  10.1380  10.1398  10.3569  10.4835  10.5910
    10.6239  10.7790  10.9246  11.0537

          k = 0.6444 0.0000 0.0000 ( 11434 PWs)   bands (ev):

   -74.7997 -48.3455 -48.3446 -48.3254 -48.3251 -48.3112 -39.1177 -39.0808
   -39.0185 -13.1050 -13.0451  -6.4421  -6.2132  -5.2724  -4.5621  -4.2723
    -3.3786  -0.8812   1.3023   1.9962   2.8611   4.6253   5.0840   6.2133
     8.1948   9.1693   9.5709   9.9602  10.1017  10.2656  10.5268  10.5790
    10.7175  10.7652  10.9938  11.0599

          k = 0.6222 0.0000 0.0000 ( 11409 PWs)   bands (ev):

   -74.7998 -48.3458 -48.3443 -48.3254 -48.3250 -48.3112 -39.1245 -39.0715
   -39.0189 -13.1155 -13.0646  -6.4195  -6.2744  -5.1791  -4.5542  -4.2863
    -3.3485  -0.9212   1.3352   2.0221   2.8395   4.5689   5.0852   6.2986
     8.1374   8.8861   9.5518   9.6180   9.9977  10.2030  10.4104  10.5563
    10.8204  10.8782  11.0260  11.1428

          k = 0.6000 0.0000 0.0000 ( 11433 PWs)   bands (ev):

   -74.8000 -48.3461 -48.3442 -48.3255 -48.3250 -48.3112 -39.1311 -39.0605
   -39.0196 -13.1345 -13.0976  -6.3840  -6.3380  -5.0612  -4.5374  -4.3091
    -3.2987  -0.9834   1.3743   2.0622   2.8076   4.4848   5.1078   6.4174
     8.0345   8.5810   9.2199   9.3640   9.8949  10.0614  10.3768  10.4146
    10.8671  11.0568  11.1274  11.2797

          k = 0.5778 0.0000 0.0000 ( 11437 PWs)   bands (ev):

   -74.8003 -48.3464 -48.3440 -48.3255 -48.3248 -48.3113 -39.1363 -39.0489
   -39.0205 -13.1677 -13.1395  -6.4075  -6.3132  -4.9505  -4.4991  -4.3371
    -3.2322  -1.0600   1.4015   2.1130   2.7725   4.3816   5.1608   6.5554
     7.8778   8.2921   8.8480   9.0779   9.7030   9.8157  10.2844  10.4571
    10.9121  11.0417  11.2390  11.3950

          k = 0.5556 0.0000 0.0000 ( 11441 PWs)   bands (ev):

   -74.8006 -48.3467 -48.3439 -48.3256 -48.3247 -48.3114 -39.1398 -39.0370
   -39.0218 -13.2267 -13.1787  -6.4451  -6.2353  -4.8788  -4.4199  -4.3650
    -3.1531  -1.1428   1.4006   2.1698   2.7402   4.2690   5.2459   6.7017
     7.6631   8.0418   8.4897   8.7807   9.4594   9.5475  10.1561  10.4899
    10.8833  10.9975  11.2134  11.5347

          k = 0.5333 0.0000 0.0000 ( 11445 PWs)   bands (ev):

   -74.8011 -48.3470 -48.3438 -48.3256 -48.3247 -48.3114 -39.1412 -39.0250
   -39.0235 -13.3072 -13.2189  -6.4606  -6.1361  -4.8593  -4.3963  -4.2863
    -3.0656  -1.2238   1.3640   2.2265   2.7099   4.1564   5.3606   6.8395
     7.4133   7.8258   8.1540   8.4907   9.1877   9.3045   9.9965  10.4296
    10.7173  11.0003  11.2949  11.6632

          k = 0.5111 0.0000 0.0000 ( 11481 PWs)   bands (ev):

   -74.8016 -48.3473 -48.3438 -48.3256 -48.3246 -48.3116 -39.1405 -39.0254
   -39.0131 -13.4035 -13.2643  -6.4520  -6.0167  -4.8801  -4.4184  -4.1247
    -2.9734  -1.2966   1.2943   2.2773   2.6724   4.0526   5.5008   6.9066
     7.1897   7.6235   7.8698   8.2139   8.9166   9.0885   9.8075  10.3079
    10.5343  10.9690  11.4293  11.7324

          k = 0.4889 0.0000 0.0000 ( 11491 PWs)   bands (ev):

   -74.8022 -48.3476 -48.3438 -48.3256 -48.3245 -48.3117 -39.1376 -39.0277
   -39.0014 -13.5132 -13.3151  -6.4194  -5.8779  -4.9278  -4.4347  -3.9462
    -2.8801  -1.3564   1.2008   2.3176   2.6157   3.9636   5.6609   6.7615
     7.0768   7.3892   7.7385   7.9535   8.6698   8.8967   9.6054  10.1341
    10.3890  10.8953  11.4746  11.7582

          k = 0.4667 0.0000 0.0000 ( 11493 PWs)   bands (ev):

   -74.8029 -48.3479 -48.3439 -48.3255 -48.3244 -48.3118 -39.1325 -39.0303
   -38.9898 -13.6341 -13.3709  -6.3645  -5.7208  -4.9951  -4.4429  -3.7603
    -2.7887  -1.4008   1.0951   2.3441   2.5331   3.8912   5.8337   6.5166
     6.9285   7.1162   7.6730   7.8107   8.4837   8.7287   9.4046   9.9381
    10.2703  10.7894  11.4257  11.7498

          k = 0.4444 0.0000 0.0000 ( 11491 PWs)   bands (ev):

   -74.8037 -48.3481 -48.3440 -48.3254 -48.3243 -48.3120 -39.1252 -39.0331
   -38.9786 -13.7642 -13.4309  -6.2897  -5.5470  -5.0781  -4.4412  -3.5721
    -2.7020  -1.4297   0.9884   2.3537   2.4270   3.8327   6.0046   6.2702
     6.7193   6.8463   7.4390   7.8151   8.4510   8.5862   9.2157   9.7507
    10.1630  10.6635  11.3065  11.6651

          k = 0.4222 0.0000 0.0000 ( 11499 PWs)   bands (ev):

   -74.8046 -48.3483 -48.3442 -48.3253 -48.3242 -48.3121 -39.1159 -39.0363
   -38.9677 -13.9011 -13.4945  -6.1987  -5.3602  -5.1715  -4.4277  -3.3849
    -2.6222  -1.4451   0.8901   2.2975   2.3534   3.7832   5.9839   6.2136
     6.4839   6.5975   7.2025   7.6923   8.4350   8.6305   9.0483   9.5964
    10.0691  10.5234  11.1323  11.5965

          k = 0.4000 0.0000 0.0000 ( 11509 PWs)   bands (ev):

   -74.8055 -48.3485 -48.3444 -48.3253 -48.3241 -48.3123 -39.1045 -39.0396
   -38.9571 -14.0427 -13.5606  -6.0970  -5.2849  -5.1484  -4.4001  -3.2016
    -2.5510  -1.4507   0.8083   2.1686   2.3301   3.7373   5.7523   6.2239
     6.3099   6.4359   6.9722   7.5165   8.3096   8.8175   8.9145   9.5234
     9.9982  10.3714  10.9482  11.5070

          k = 0.3778 0.0000 0.0000 ( 11507 PWs)   bands (ev):

   -74.8065 -48.3486 -48.3446 -48.3251 -48.3240 -48.3126 -39.0914 -39.0432
   -38.9470 -14.1869 -13.6285  -5.9955  -5.3799  -4.9432  -4.3557  -3.0254
    -2.4891  -1.4510   0.7492   2.0415   2.2953   3.6901   5.5202   5.9877
     6.1157   6.5401   6.7498   7.3425   8.1749   8.8125   8.8870   9.5934
     9.9540  10.2399  10.7848  11.3640

          k = 0.3556 0.0000 0.0000 ( 11515 PWs)   bands (ev):

   -74.8075 -48.3488 -48.3449 -48.3250 -48.3239 -48.3128 -39.0768 -39.0469
   -38.9374 -14.3318 -13.6973  -5.9215  -5.4470  -4.7341  -4.2890  -2.8617
    -2.4350  -1.4495   0.7167   1.9264   2.2514   3.6377   5.2965   5.7548
     5.9041   6.5304   6.6324   7.2030   8.0287   8.7629   8.8253   9.6772
     9.8490  10.3121  10.6544  11.2111

          k = 0.3333 0.0000 0.0000 ( 11495 PWs)   bands (ev):

   -74.8086 -48.3489 -48.3452 -48.3249 -48.3238 -48.3130 -39.0611 -39.0504
   -38.9283 -14.4755 -13.7661  -5.9236  -5.4339  -4.5382  -4.1892  -2.7197
    -2.3829  -1.4480   0.7117   1.8314   2.2025   3.5771   5.0828   5.5328
     5.7003   6.3260   6.6287   7.1359   7.8736   8.7142   8.7716   9.5772
     9.7488  10.5545  10.6055  11.0843

          k = 0.3111 0.0000 0.0000 ( 11517 PWs)   bands (ev):

   -74.8096 -48.3490 -48.3456 -48.3247 -48.3238 -48.3132 -39.0554 -39.0429
   -38.9197 -14.6166 -13.8341  -6.0060  -5.3355  -4.3743  -4.0420  -2.6153
    -2.3206  -1.4451   0.7324   1.7629   2.1526   3.5066   4.8798   5.3231
     5.5063   6.1295   6.5336   7.1343   7.7150   8.6238   8.8029   9.3319
     9.7264  10.4884  10.8434  11.0644

          k = 0.2889 0.0000 0.0000 ( 11515 PWs)   bands (ev):

   -74.8107 -48.3490 -48.3459 -48.3246 -48.3237 -48.3134 -39.0591 -39.0253
   -38.9117 -14.7535 -13.9007  -6.1262  -5.1937  -4.2435  -3.8523  -2.5589
    -2.2395  -1.4377   0.7752   1.7255   2.1057   3.4255   4.6881   5.1263
     5.3231   5.9429   6.3956   7.1369   7.5597   8.5485   8.8671   9.0745
     9.6910  10.4495  10.8121  11.1621

          k = 0.2667 0.0000 0.0000 ( 11515 PWs)   bands (ev):

   -74.8118 -48.3491 -48.3463 -48.3244 -48.3236 -48.3137 -39.0630 -39.0070
   -38.9042 -14.8849 -13.9650  -6.2594  -5.0332  -4.1284  -3.6462  -2.5379
    -2.1516  -1.4217   0.8363   1.7210   2.0653   3.3343   4.5081   4.9429
     5.1511   5.7673   6.2464   7.1007   7.4139   8.4967   8.7908   8.9978
     9.6314  10.4334  10.7284  11.1243

          k = 0.2444 0.0000 0.0000 ( 11489 PWs)   bands (ev):

   -74.8129 -48.3491 -48.3467 -48.3243 -48.3236 -48.3139 -39.0668 -38.9884
   -38.8973 -15.0097 -14.0265  -6.3950  -4.8643  -4.0168  -3.4485  -2.5286
    -2.0732  -1.3952   0.9143   1.7475   2.0345   3.2342   4.3404   4.7730
     4.9907   5.6031   6.0972   7.0096   7.2801   8.4380   8.6007   9.1143
     9.5524  10.4154  10.6378  11.0478

          k = 0.2222 0.0000 0.0000 ( 11513 PWs)   bands (ev):

   -74.8139 -48.3492 -48.3470 -48.3241 -48.3235 -48.3141 -39.0706 -38.9700
   -38.8910 -15.1269 -14.0846  -6.5280  -4.6924  -3.9052  -3.2825  -2.5066
    -2.0111  -1.3598   1.0099   1.7995   2.0157   3.1271   4.1852   4.6170
     4.8422   5.4511   5.9520   6.8697   7.1524   8.2758   8.5682   9.2324
     9.4751  10.3582  10.5588  10.9761

          k = 0.2000 0.0000 0.0000 ( 11499 PWs)   bands (ev):

   -74.8149 -48.3492 -48.3474 -48.3240 -48.3235 -48.3143 -39.0742 -38.9521
   -38.8853 -15.2356 -14.1388  -6.6550  -4.5211  -3.7939  -3.1717  -2.4480
    -1.9639  -1.3206   1.1249   1.8686   2.0115   3.0154   4.0429   4.4752
     4.7055   5.3117   5.8114   6.6957   7.0262   8.0944   8.6170   9.2606
     9.4580  10.2792  10.4899  10.9183

          k = 0.1778 0.0000 0.0000 ( 11503 PWs)   bands (ev):

   -74.8158 -48.3492 -48.3477 -48.3238 -48.3234 -48.3145 -39.0775 -38.9350
   -38.8802 -15.3350 -14.1885  -6.7737  -4.3535  -3.6854  -3.1238  -2.3451
    -1.9262  -1.2838   1.2602   1.9447   2.0251   2.9019   3.9139   4.3478
     4.5806   5.1854   5.6744   6.5008   6.9052   7.9369   8.7006   9.1859
     9.4462  10.2767  10.4167  10.8550

          k = 0.1556 0.0000 0.0000 ( 11521 PWs)   bands (ev):

   -74.8167 -48.3492 -48.3481 -48.3237 -48.3234 -48.3147 -39.0806 -38.9191
   -38.8757 -15.4243 -14.2334  -6.8823  -4.1923  -3.5832  -3.1224  -2.2154
    -1.8924  -1.2539   1.4147   2.0116   2.0653   2.7898   3.7981   4.2350
     4.4672   5.0725   5.5386   6.2997   6.7946   7.8054   8.8085   9.0864
     9.3259  10.3412  10.4120  10.7639

          k = 0.1333 0.0000 0.0000 ( 11549 PWs)   bands (ev):

   -74.8174 -48.3493 -48.3484 -48.3236 -48.3234 -48.3148 -39.0834 -38.9046
   -38.8718 -15.5029 -14.2730  -6.9791  -4.0402  -3.4913  -3.1450  -2.0817
    -1.8580  -1.2329   1.5846   2.0622   2.1318   2.6826   3.6953   4.1368
     4.3650   4.9733   5.4017   6.1093   6.6972   7.6970   8.9282   8.9654
     9.1600  10.2703  10.6145  10.6698

          k = 0.1111 0.0000 0.0000 ( 11549 PWs)   bands (ev):

   -74.8181 -48.3493 -48.3487 -48.3235 -48.3233 -48.3150 -39.0858 -38.8918
   -38.8685 -15.5704 -14.3071  -7.0631  -3.8999  -3.4138  -3.1767  -1.9592
    -1.8208  -1.2211   1.7634   2.1133   2.2007   2.5841   3.6050   4.0533
     4.2736   4.8875   5.2633   5.9440   6.6142   7.6082   8.7816   8.9825
     9.1203  10.2075  10.4981  10.9255

          k = 0.0889 0.0000 0.0000 ( 11555 PWs)   bands (ev):

   -74.8186 -48.3493 -48.3489 -48.3234 -48.3233 -48.3151 -39.0878 -38.8810
   -38.8658 -15.6262 -14.3354  -7.1331  -3.7743  -3.3536  -3.2092  -1.8560
    -1.7810  -1.2173   1.9422   2.1680   2.2605   2.4983   3.5266   3.9845
     4.1929   4.8151   5.1285   5.8121   6.5459   7.5369   8.5684   8.9192
     9.2523  10.1554  10.3613  11.2217

          k = 0.0667 0.0000 0.0000 ( 11577 PWs)   bands (ev):

   -74.8191 -48.3493 -48.3491 -48.3234 -48.3233 -48.3152 -39.0894 -38.8724
   -38.8637 -15.6700 -14.3576  -7.1884  -3.6671  -3.3120  -3.2377  -1.7754
    -1.7412  -1.2195   2.1096   2.2219   2.3062   2.4298   3.4597   3.9305
     4.1238   4.7556   5.0084   5.7146   6.4926   7.4817   8.3706   8.8654
     9.3954  10.1155  10.2407  11.4110

          k = 0.0444 0.0000 0.0000 ( 11585 PWs)   bands (ev):

   -74.8194 -48.3493 -48.3492 -48.3233 -48.3233 -48.3153 -39.0906 -38.8661
   -38.8622 -15.7014 -14.3735  -7.2283  -3.5825  -3.2883  -3.2593  -1.7183
    -1.7061  -1.2250   2.2492   2.2691   2.3301   2.3885   3.4054   3.8914
     4.0690   4.7093   4.9158   5.6485   6.4544   7.4422   8.2135   8.8274
     9.5204  10.0887  10.1480  11.3467

          k = 0.0222 0.0000 0.0000 ( 11575 PWs)   bands (ev):

   -74.8196 -48.3493 -48.3493 -48.3233 -48.3232 -48.3153 -39.0913 -38.8623
   -38.8613 -15.7204 -14.3832  -7.2525  -3.5266  -3.2787  -3.2725  -1.6843
    -1.6818  -1.2304   2.2994   2.3161   2.3542   2.3841   3.3677   3.8675
     4.0328   4.6783   4.8590   5.6104   6.4315   7.4182   8.1128   8.8046
     9.6065  10.0748  10.0903  11.2866

          k = 0.0000 0.0000 0.0000 ( 11595 PWs)   bands (ev):

   -74.8197 -48.3493 -48.3493 -48.3233 -48.3233 -48.3154 -39.0915 -38.8610
   -38.8610 -15.7267 -14.3864  -7.2605  -3.5067  -3.2768  -3.2768  -1.6730
    -1.6730  -1.2327   2.3109   2.3109   2.3871   2.3871   3.3538   3.8595
     4.0201   4.6672   4.8403   5.5979   6.4238   7.4102   8.0782   8.7971
     9.6373  10.0709  10.0709  11.2633

     Writing all to output data dir ./work/WSSe.save/

     init_run     :      0.58s CPU      0.62s WALL (       1 calls)
     electrons    :     79.78s CPU     83.38s WALL (       1 calls)

     Called by init_run:
     wfcinit      :      0.00s CPU      0.00s WALL (       1 calls)
     potinit      :      0.04s CPU      0.06s WALL (       1 calls)
     hinit0       :      0.43s CPU      0.43s WALL (       1 calls)

     Called by electrons:
     c_bands      :     79.78s CPU     83.38s WALL (       1 calls)
     v_of_rho     :      0.01s CPU      0.01s WALL (       1 calls)
     newd         :      0.06s CPU      0.08s WALL (       1 calls)
     PAW_pot      :      0.03s CPU      0.06s WALL (       1 calls)

     Called by c_bands:
     init_us_2    :      0.03s CPU      0.03s WALL (      91 calls)
     init_us_2:cp :      0.03s CPU      0.03s WALL (      91 calls)
     cegterg      :     77.66s CPU     81.07s WALL (     282 calls)

     Called by *egterg:
     cdiaghg      :      7.02s CPU      7.11s WALL (    5005 calls)
     h_psi        :     34.48s CPU     37.71s WALL (    5287 calls)
     s_psi        :      4.64s CPU      4.72s WALL (    5287 calls)
     g_psi        :      0.27s CPU      0.27s WALL (    4914 calls)

     Called by h_psi:
     h_psi:calbec :      4.76s CPU      5.20s WALL (    5287 calls)
     vloc_psi     :     24.95s CPU     27.52s WALL (    5287 calls)
     add_vuspsi   :      4.60s CPU      4.81s WALL (    5287 calls)

     General routines
     calbec       :      4.75s CPU      5.19s WALL (    5287 calls)
     fft          :      0.25s CPU      0.25s WALL (      12 calls)
     fftw         :     23.13s CPU     25.52s WALL (  166562 calls)
     davcio       :      0.05s CPU      0.06s WALL (     182 calls)

     Parallel routines

     PWSCF        :   1m21.11s CPU   1m25.04s WALL


   This run was terminated on:  11:13:18  31Jan2023            

=------------------------------------------------------------------------------=
   JOB DONE.
=------------------------------------------------------------------------------=
