
     Program PWSCF v.7.1 starts on 30Jan2023 at 15:46: 1 

     This program is part of the open-source Quantum ESPRESSO suite
     for quantum simulation of materials; please cite
         "P. Giannozzi et al., J. Phys.:Condens. Matter 21 395502 (2009);
         "P. Giannozzi et al., J. Phys.:Condens. Matter 29 465901 (2017);
         "P. Giannozzi et al., J. Chem. Phys. 152 154105 (2020);
          URL http://www.quantum-espresso.org", 
     in publications or presentations arising from this work. More details at
     http://www.quantum-espresso.org/quote

     Parallel version (MPI), running on    12 processors

     MPI processes distributed on     1 nodes
     88007 MiB available memory on the printing compute node when the environment starts

     Waiting for input...
     Reading input from standard input

     Current dimensions of program PWSCF are:
     Max number of different atomic species (ntypx) = 10
     Max number of k-points (npk) =  40000
     Max angular momentum in pseudopotentials (lmaxx) =  4
     file W.pbe-spn-kjpaw_psl.1.0.0.UPF: wavefunction(s)  6S 5P 5D renormalized
     file S.pbe-n-kjpaw_psl.1.0.0.UPF: wavefunction(s)  3S 3P renormalized
     file Se.pbe-dn-kjpaw_psl.1.0.0.UPF: wavefunction(s)  4S 4P 3D renormalized
     Message from routine setup:
     using ibrav=0 with symmetry is DISCOURAGED, use correct ibrav instead

     R & G space division:  proc/nbgrp/npool/nimage =      12
     Subspace diagonalization in iterative solution of the eigenvalue problem:
     a serial algorithm will be used


     Parallelization info
     --------------------
     sticks:   dense  smooth     PW     G-vecs:    dense   smooth      PW
     Min          49      49     14                 7632     7632    1212
     Max          51      51     15                 7669     7669    1242
     Sum         595     595    169                91835    91835   14719

     Using Slab Decomposition



     bravais-lattice index     =            0
     lattice parameter (alat)  =       5.9796  a.u.
     unit-cell volume          =    1462.8984 (a.u.)^3
     number of atoms/cell      =            3
     number of atomic types    =            3
     number of electrons       =        36.00
     number of Kohn-Sham states=           36
     kinetic-energy cutoff     =      60.0000  Ry
     charge density cutoff     =     240.0000  Ry
     scf convergence threshold =      1.0E-08
     mixing beta               =       0.5000
     number of iterations used =            8  plain     mixing
     Exchange-correlation= SLA  PW   PBX  PBC
                           (   1   4   3   4   0   0   0)

     celldm(1)=   5.979603  celldm(2)=   0.000000  celldm(3)=   0.000000
     celldm(4)=   0.000000  celldm(5)=   0.000000  celldm(6)=   0.000000

     crystal axes: (cart. coord. in units of alat)
               a(1) = (   1.000000   0.000000   0.000000 )  
               a(2) = (  -0.500000   0.866025   0.000000 )  
               a(3) = (   0.000000   0.000000   7.900718 )  

     reciprocal axes: (cart. coord. in units 2 pi/alat)
               b(1) = (  1.000000  0.577350 -0.000000 )  
               b(2) = (  0.000000  1.154701  0.000000 )  
               b(3) = (  0.000000 -0.000000  0.126571 )  


     PseudoPot. # 1 for W  read from file:
     /home/mainadmin/research/danu/pseudo/W.pbe-spn-kjpaw_psl.1.0.0.UPF
     MD5 check sum: 03c3df5b60893f488392c7401945500a
     Pseudo is Projector augmented-wave + core cor, Zval = 14.0
     Generated using &quot;atomic&quot; code by A. Dal Corso  v.6.2.2
     Shape of augmentation charge: PSQ
     Using radial grid of 1273 points,  6 beta functions with: 
                l(1) =   0
                l(2) =   0
                l(3) =   1
                l(4) =   1
                l(5) =   2
                l(6) =   2
     Q(r) pseudized with 0 coefficients 


     PseudoPot. # 2 for S  read from file:
     /home/mainadmin/research/danu/pseudo/S.pbe-n-kjpaw_psl.1.0.0.UPF
     MD5 check sum: fb45dfebcf3e72a4e1bd4a866ec2e262
     Pseudo is Projector augmented-wave + core cor, Zval =  6.0
     Generated using &quot;atomic&quot; code by A. Dal Corso  v.6.3
     Shape of augmentation charge: PSQ
     Using radial grid of 1151 points,  6 beta functions with: 
                l(1) =   0
                l(2) =   0
                l(3) =   1
                l(4) =   1
                l(5) =   2
                l(6) =   2
     Q(r) pseudized with 0 coefficients 


     PseudoPot. # 3 for Se read from file:
     /home/mainadmin/research/danu/pseudo/Se.pbe-dn-kjpaw_psl.1.0.0.UPF
     MD5 check sum: ac240dd2bae32a30e0bf3a38df9c8785
     Pseudo is Projector augmented-wave + core cor, Zval = 16.0
     Generated using &quot;atomic&quot; code by A. Dal Corso  v.6.3
     Shape of augmentation charge: PSQ
     Using radial grid of 1211 points,  6 beta functions with: 
                l(1) =   0
                l(2) =   0
                l(3) =   1
                l(4) =   1
                l(5) =   2
                l(6) =   2
     Q(r) pseudized with 0 coefficients 


     atomic species   valence    mass     pseudopotential
        W             14.00   183.84000     W ( 1.00)
        S              6.00    32.06500     S ( 1.00)
        Se            16.00    78.96000     Se( 1.00)

      6 Sym. Ops. (no inversion) found



   Cartesian axes

     site n.     atom                  positions (alat units)
         1           Se  tau(   1) = (   0.5000000   0.2886751   4.4957047  )
         2           W   tau(   2) = (  -0.0000000   0.5773503   3.9245440  )
         3           S   tau(   3) = (   0.5000000   0.2886751  -4.4698899  )

     number of k points=    19
                       cart. coord. in units 2pi/alat
        k(    1) = (   0.0000000   0.0000000   0.0000000), wk =   0.0138889
        k(    2) = (   0.0000000   0.0962250   0.0000000), wk =   0.0833333
        k(    3) = (   0.0000000   0.1924501   0.0000000), wk =   0.0833333
        k(    4) = (   0.0000000   0.2886751   0.0000000), wk =   0.0833333
        k(    5) = (   0.0000000   0.3849002   0.0000000), wk =   0.0833333
        k(    6) = (   0.0000000   0.4811252   0.0000000), wk =   0.0833333
        k(    7) = (   0.0000000  -0.5773503   0.0000000), wk =   0.0416667
        k(    8) = (   0.0833333   0.1443376   0.0000000), wk =   0.0833333
        k(    9) = (   0.0833333   0.2405626   0.0000000), wk =   0.1666667
        k(   10) = (   0.0833333   0.3367877   0.0000000), wk =   0.1666667
        k(   11) = (   0.0833333   0.4330127   0.0000000), wk =   0.1666667
        k(   12) = (   0.0833333   0.5292377   0.0000000), wk =   0.1666667
        k(   13) = (   0.1666667   0.2886751   0.0000000), wk =   0.0833333
        k(   14) = (   0.1666667   0.3849002   0.0000000), wk =   0.1666667
        k(   15) = (   0.1666667   0.4811252   0.0000000), wk =   0.1666667
        k(   16) = (   0.1666667   0.5773503   0.0000000), wk =   0.0833333
        k(   17) = (   0.2500000   0.4330127   0.0000000), wk =   0.0833333
        k(   18) = (   0.2500000   0.5292377   0.0000000), wk =   0.1666667
        k(   19) = (   0.3333333   0.5773503   0.0000000), wk =   0.0277778

     Dense  grid:    91835 G-vectors     FFT dimensions: (  30,  30, 240)

     Estimated max dynamical RAM per process >      41.79 MB

     Estimated total dynamical RAM >     501.50 MB

     Check: negative core charge=   -0.000001

     Initial potential from superposition of free atoms

     starting charge      35.9993, renormalised to      36.0000

     negative rho (up, down):  6.163E-04 0.000E+00
     Starting wfcs are   26 randomized atomic wfcs +   10 random wfcs
     Checking if some PAW data can be deallocated... 

     total cpu time spent up to now is        4.2 secs

     Self-consistent Calculation

     iteration #  1     ecut=    60.00 Ry     beta= 0.50
     Davidson diagonalization with overlap
     ethr =  1.00E-02,  avg # of iterations =  8.5

     Threshold (ethr) on eigenvalues was too large:
     Diagonalizing with lowered threshold

     Davidson diagonalization with overlap
     ethr =  3.49E-04,  avg # of iterations =  2.3

     negative rho (up, down):  8.201E-03 0.000E+00

     total cpu time spent up to now is       24.4 secs

     total energy              =   -1228.46573051 Ry
     estimated scf accuracy    <       0.12585213 Ry

     iteration #  2     ecut=    60.00 Ry     beta= 0.50
     Davidson diagonalization with overlap
     ethr =  3.50E-04,  avg # of iterations =  7.7

     negative rho (up, down):  1.664E-02 0.000E+00

     total cpu time spent up to now is       34.6 secs

     total energy              =   -1228.43597926 Ry
     estimated scf accuracy    <       0.62256405 Ry

     iteration #  3     ecut=    60.00 Ry     beta= 0.50
     Davidson diagonalization with overlap
     ethr =  3.50E-04,  avg # of iterations =  7.1

     negative rho (up, down):  7.258E-02 0.000E+00

     total cpu time spent up to now is       43.5 secs

     total energy              =   -1228.56673313 Ry
     estimated scf accuracy    <       0.09219973 Ry

     iteration #  4     ecut=    60.00 Ry     beta= 0.50
     Davidson diagonalization with overlap
     ethr =  2.56E-04,  avg # of iterations =  3.2

     negative rho (up, down):  1.394E-02 0.000E+00

     total cpu time spent up to now is       51.4 secs

     total energy              =   -1228.32623931 Ry
     estimated scf accuracy    <       1.07085161 Ry

     iteration #  5     ecut=    60.00 Ry     beta= 0.50
     Davidson diagonalization with overlap
     ethr =  2.56E-04,  avg # of iterations =  3.4

     negative rho (up, down):  1.853E-02 0.000E+00

     total cpu time spent up to now is       59.9 secs

     total energy              =   -1228.51658161 Ry
     estimated scf accuracy    <       0.04087678 Ry

     iteration #  6     ecut=    60.00 Ry     beta= 0.50
     Davidson diagonalization with overlap
     ethr =  1.14E-04,  avg # of iterations =  2.0

     negative rho (up, down):  1.484E-02 0.000E+00

     total cpu time spent up to now is       66.9 secs

     total energy              =   -1228.51918210 Ry
     estimated scf accuracy    <       0.03444469 Ry

     iteration #  7     ecut=    60.00 Ry     beta= 0.50
     Davidson diagonalization with overlap
     ethr =  9.57E-05,  avg # of iterations =  1.5

     negative rho (up, down):  4.922E-03 0.000E+00

     total cpu time spent up to now is       73.4 secs

     total energy              =   -1228.50158620 Ry
     estimated scf accuracy    <       0.02726338 Ry

     iteration #  8     ecut=    60.00 Ry     beta= 0.50
     Davidson diagonalization with overlap
     ethr =  7.57E-05,  avg # of iterations =  2.6

     negative rho (up, down):  9.755E-04 0.000E+00

     total cpu time spent up to now is       80.8 secs

     total energy              =   -1228.50326776 Ry
     estimated scf accuracy    <       0.00785923 Ry

     iteration #  9     ecut=    60.00 Ry     beta= 0.50
     Davidson diagonalization with overlap
     ethr =  2.18E-05,  avg # of iterations =  5.8

     negative rho (up, down):  1.403E-03 0.000E+00

     total cpu time spent up to now is       89.7 secs

     total energy              =   -1228.50428845 Ry
     estimated scf accuracy    <       0.00159849 Ry

     iteration # 10     ecut=    60.00 Ry     beta= 0.50
     Davidson diagonalization with overlap
     ethr =  4.44E-06,  avg # of iterations =  2.8

     negative rho (up, down):  1.318E-03 0.000E+00

     total cpu time spent up to now is       97.3 secs

     total energy              =   -1228.50486073 Ry
     estimated scf accuracy    <       0.00032515 Ry

     iteration # 11     ecut=    60.00 Ry     beta= 0.50
     Davidson diagonalization with overlap
     c_bands:  1 eigenvalues not converged
     ethr =  9.03E-07,  avg # of iterations =  4.2

     negative rho (up, down):  2.312E-03 0.000E+00

     total cpu time spent up to now is      104.3 secs

     total energy              =   -1228.50432729 Ry
     estimated scf accuracy    <       0.00081497 Ry

     iteration # 12     ecut=    60.00 Ry     beta= 0.50
     Davidson diagonalization with overlap
     ethr =  9.03E-07,  avg # of iterations =  3.9

     negative rho (up, down):  2.119E-03 0.000E+00

     total cpu time spent up to now is      112.3 secs

     total energy              =   -1228.50467912 Ry
     estimated scf accuracy    <       0.00001132 Ry

     iteration # 13     ecut=    60.00 Ry     beta= 0.50
     Davidson diagonalization with overlap
     ethr =  3.14E-08,  avg # of iterations =  2.3

     negative rho (up, down):  2.094E-03 0.000E+00

     total cpu time spent up to now is      119.1 secs

     total energy              =   -1228.50468249 Ry
     estimated scf accuracy    <       0.00000447 Ry

     iteration # 14     ecut=    60.00 Ry     beta= 0.50
     Davidson diagonalization with overlap
     ethr =  1.24E-08,  avg # of iterations =  2.0

     negative rho (up, down):  2.004E-03 0.000E+00

     total cpu time spent up to now is      126.1 secs

     total energy              =   -1228.50468193 Ry
     estimated scf accuracy    <       0.00000080 Ry

     iteration # 15     ecut=    60.00 Ry     beta= 0.50
     Davidson diagonalization with overlap
     ethr =  2.22E-09,  avg # of iterations =  3.0

     negative rho (up, down):  2.003E-03 0.000E+00

     total cpu time spent up to now is      133.5 secs

     total energy              =   -1228.50468310 Ry
     estimated scf accuracy    <       0.00000030 Ry

     iteration # 16     ecut=    60.00 Ry     beta= 0.50
     Davidson diagonalization with overlap
     ethr =  8.29E-10,  avg # of iterations =  1.1

     negative rho (up, down):  2.011E-03 0.000E+00

     total cpu time spent up to now is      139.5 secs

     total energy              =   -1228.50468302 Ry
     estimated scf accuracy    <       0.00000035 Ry

     iteration # 17     ecut=    60.00 Ry     beta= 0.50
     Davidson diagonalization with overlap
     ethr =  8.29E-10,  avg # of iterations =  1.8

     negative rho (up, down):  2.041E-03 0.000E+00

     total cpu time spent up to now is      147.0 secs

     total energy              =   -1228.50468270 Ry
     estimated scf accuracy    <       0.00000027 Ry

     iteration # 18     ecut=    60.00 Ry     beta= 0.50
     Davidson diagonalization with overlap
     ethr =  7.53E-10,  avg # of iterations =  2.0

     negative rho (up, down):  2.046E-03 0.000E+00

     total cpu time spent up to now is      153.3 secs

     total energy              =   -1228.50468282 Ry
     estimated scf accuracy    <       0.00000002 Ry

     iteration # 19     ecut=    60.00 Ry     beta= 0.50
     Davidson diagonalization with overlap
     ethr =  6.66E-11,  avg # of iterations =  2.3

     negative rho (up, down):  2.000E-03 0.000E+00

     total cpu time spent up to now is      159.6 secs

     End of self-consistent calculation

          k = 0.0000 0.0000 0.0000 ( 11595 PWs)   bands (ev):

   -74.8198 -48.3493 -48.3493 -48.3232 -48.3232 -48.3154 -39.0917 -38.8612
   -38.8612 -15.7268 -14.3864  -7.2606  -3.5066  -3.2768  -3.2768  -1.6731
    -1.6731  -1.2328   2.3108   2.3108   2.3870   2.3870   3.3515   3.8556
     4.0171   4.6643   4.8383   5.5955   6.4204   7.4071   8.0781   8.7939
     9.6349  10.0708  10.0708  11.2617

          k = 0.0000 0.0962 0.0000 ( 11547 PWs)   bands (ev):

   -74.8186 -48.3493 -48.3488 -48.3234 -48.3232 -48.3150 -39.0873 -38.8846
   -38.8666 -15.6091 -14.3267  -7.1117  -3.8163  -3.3642  -3.2042  -1.8597
    -1.8199  -1.2207   1.8756   2.1721   2.2350   2.5215   3.5479   4.0016
     4.2147   4.8342   5.1685   5.8495   6.5633   7.5553   8.6285   8.9387
     9.2014  10.1735  10.4194  11.1211

          k = 0.0000 0.1925 0.0000 ( 11519 PWs)   bands (ev):

   -74.8154 -48.3492 -48.3474 -48.3239 -48.3234 -48.3143 -39.0755 -38.9483
   -38.8815 -15.2707 -14.1565  -6.7020  -4.4868  -3.7657  -3.1027  -2.2978
    -2.0445  -1.3666   1.1605   1.9536   2.1026   2.9347   3.9832   4.4241
     4.6479   5.2607   5.7267   6.5851   6.9683   8.0323   8.5410   8.9815
     9.4284  10.4781  10.6396  11.2866

          k = 0.0000 0.2887 0.0000 ( 11487 PWs)   bands (ev):

   -74.8109 -48.3494 -48.3455 -48.3246 -48.3236 -48.3134 -39.0594 -39.0341
   -38.9018 -14.7575 -13.9042  -6.2198  -5.2105  -4.4813  -3.2574  -2.7809
    -1.9557  -1.7646   0.9486   1.7423   2.3665   3.3251   4.6329   5.1097
     5.2606   5.9130   6.1690   6.9447   7.4367   8.1210   8.4015   8.9349
     9.9282  10.7912  11.1040  11.4416

          k = 0.0000 0.3849 0.0000 ( 11471 PWs)   bands (ev):

   -74.8065 -48.3494 -48.3437 -48.3253 -48.3238 -48.3124 -39.1191 -39.0429
   -38.9220 -14.1571 -13.6228  -6.4397  -5.4040  -5.2207  -3.5581  -3.0907
    -2.0733  -1.6960   1.2476   1.7795   2.7598   3.5700   5.2947   5.7955
     6.0093   6.2383   6.6301   7.2146   7.3651   8.3924   8.5582   9.4997
    10.0159  10.9001  11.1387  11.5206

          k = 0.0000 0.4811 0.0000 ( 11462 PWs)   bands (ev):

   -74.8032 -48.3494 -48.3424 -48.3259 -48.3239 -48.3116 -39.1803 -39.0310
   -38.9367 -13.6276 -13.3922  -7.0720  -5.9825  -5.1219  -3.7857  -3.2205
    -1.9806  -1.5326   1.7658   2.0338   3.0085   3.6759   4.7751   6.1353
     6.4748   7.1461   7.3455   7.8866   8.0137   8.6236   9.0673   9.6615
    10.0178  10.4484  10.5681  10.8474

          k = 0.0000-0.5774 0.0000 ( 11424 PWs)   bands (ev):

   -74.8020 -48.3494 -48.3419 -48.3260 -48.3239 -48.3113 -39.2026 -39.0266
   -38.9421 -13.4041 -13.3010  -7.3559  -6.2094  -5.1073  -3.8671  -3.2537
    -1.8266  -1.4879   2.1034   2.1934   3.0338   3.6994   4.2849   6.3786
     6.5537   7.4679   8.4042   8.5270   8.7573   8.8378   9.1461   9.3443
     9.5559   9.6379  10.1645  10.3715

          k = 0.0833 0.1443 0.0000 ( 11513 PWs)   bands (ev):

   -74.8164 -48.3492 -48.3479 -48.3237 -48.3234 -48.3145 -39.0792 -38.9270
   -38.8780 -15.3809 -14.2116  -6.8294  -4.2719  -3.6333  -3.1188  -2.2821
    -1.9091  -1.2680   1.3351   1.9804   2.0409   2.8454   3.8517   4.2858
     4.5194   5.1241   5.6040   6.3985   6.8452   7.8654   8.7514   9.1349
     9.3982  10.3282  10.3766  10.8133

          k = 0.0833 0.2406 0.0000 ( 11513 PWs)   bands (ev):

   -74.8125 -48.3492 -48.3464 -48.3243 -48.3236 -48.3138 -39.0652 -38.9987
   -38.8986 -14.9540 -13.9992  -6.3440  -4.9524  -4.1136  -3.4383  -2.5220
    -2.1152  -1.4557   0.8999   1.7476   2.1018   3.2593   4.4046   4.8430
     5.0511   5.6698   6.1315   7.0025   7.3257   8.4415   8.6273   8.8139
     9.6844  10.5979  10.7755  11.1391

          k = 0.0833 0.3368 0.0000 ( 11485 PWs)   bands (ev):

   -74.8081 -48.3491 -48.3446 -48.3250 -48.3238 -48.3128 -39.0806 -39.0487
   -38.9225 -14.3924 -13.7288  -6.1086  -5.3941  -4.8835  -3.8435  -2.6737
    -2.4218  -1.5498   0.8985   1.8129   2.4408   3.5382   5.1531   5.6479
     5.7569   6.3380   6.4418   7.1146   7.6617   8.3522   8.5332   9.4452
    10.0537  10.7339  11.0285  11.2724

          k = 0.0833 0.4330 0.0000 ( 11477 PWs)   bands (ev):

   -74.8043 -48.3491 -48.3431 -48.3256 -48.3240 -48.3119 -39.1502 -39.0348
   -38.9432 -13.8141 -13.4660  -6.6924  -5.7065  -5.1297  -3.9954  -2.9767
    -2.5458  -1.4589   1.2932   2.1363   2.8357   3.5714   5.3792   6.0584
     6.5551   6.7429   7.1508   7.6574   7.8288   8.7619   8.9390   9.4745
     9.9851  10.2824  11.1808  11.3982

          k = 0.0833 0.5292 0.0000 ( 11472 PWs)   bands (ev):

   -74.8020 -48.3491 -48.3423 -48.3259 -48.3241 -48.3114 -39.1901 -39.0266
   -38.9551 -13.4176 -13.2980  -7.1774  -6.1580  -5.0638  -4.0151  -3.1879
    -2.4535  -1.3296   1.8320   2.3897   3.1355   3.3629   4.5574   6.5907
     7.0525   7.6958   8.0560   8.3330   8.5743   8.8749   9.1977   9.5160
     9.7068   9.9992  10.1652  10.5036

          k = 0.1667 0.2887 0.0000 ( 11495 PWs)   bands (ev):

   -74.8087 -48.3488 -48.3452 -48.3248 -48.3238 -48.3130 -39.0613 -39.0505
   -38.9284 -14.4755 -13.7661  -5.9234  -5.4341  -4.5382  -4.1892  -2.7199
    -2.3829  -1.4481   0.7116   1.8313   2.2024   3.5770   5.0802   5.5291
     5.6973   6.3230   6.6272   7.1338   7.8705   8.7119   8.7711   9.5764
     9.7474  10.5533  10.6050  11.0826

          k = 0.1667 0.3849 0.0000 ( 11496 PWs)   bands (ev):

   -74.8049 -48.3485 -48.3440 -48.3254 -48.3241 -48.3122 -39.1188 -39.0369
   -38.9613 -13.9219 -13.5057  -6.2581  -5.3880  -5.1649  -4.3616  -3.2215
    -2.6561  -1.4438   0.9194   2.2526   2.4175   3.7366   5.9146   6.1427
     6.4453   6.5568   7.1550   7.6499   8.2893   8.7261   8.9973   9.5500
    10.0082  10.3193  11.2318  11.4775

          k = 0.1667 0.4811 0.0000 ( 11462 PWs)   bands (ev):

   -74.8020 -48.3481 -48.3431 -48.3257 -48.3243 -48.3115 -39.1598 -39.0266
   -38.9865 -13.4439 -13.2920  -6.7366  -6.0319  -4.9630  -4.3196  -3.4485
    -3.0221  -1.3065   1.4299   2.4840   2.6756   3.7397   5.1719   6.7856
     7.3310   7.6459   8.0524   8.1373   8.6689   8.8907   9.2392   9.7686
    10.2188  10.4702  10.8887  11.1946

          k = 0.1667 0.5774 0.0000 ( 11434 PWs)   bands (ev):

   -74.8010 -48.3480 -48.3428 -48.3258 -48.3244 -48.3113 -39.1746 -39.0229
   -38.9958 -13.2487 -13.2050  -6.9427  -6.2669  -4.9671  -4.2448  -3.4612
    -3.2145  -1.1703   1.7380   2.4724   2.7970   3.6799   4.7046   7.2246
     7.8641   8.0459   8.7143   8.9528   8.9854   9.2392   9.3514   9.5467
     9.8924   9.9477  10.3104  10.7020

          k = 0.2500 0.4330 0.0000 ( 11491 PWs)   bands (ev):

   -74.8020 -48.3475 -48.3437 -48.3256 -48.3245 -48.3116 -39.1395 -39.0266
   -39.0073 -13.4567 -13.2890  -6.4387  -5.9497  -4.9010  -4.4274  -4.0371
    -2.9267  -1.3286   1.2496   2.2989   2.6469   4.0059   5.5786   6.8592
     7.1238   7.5106   7.7752   8.0780   8.7856   8.9880   9.7056  10.2240
    10.4550  10.9363  11.4671  11.7394

          k = 0.2500 0.5292 0.0000 ( 11433 PWs)   bands (ev):

   -74.8004 -48.3466 -48.3438 -48.3256 -48.3247 -48.3112 -39.1433 -39.0420
   -39.0207 -13.1665 -13.1389  -6.4984  -6.3256  -4.9441  -4.4286  -4.2692
    -3.2469  -1.0589   1.4507   2.1535   2.7757   4.2926   5.0595   6.6895
     7.8854   8.3673   8.9485   9.1498   9.6736   9.7305  10.0081  10.4106
    10.6261  10.6854  11.0002  11.2659

          k = 0.3333 0.5774 0.0000 ( 11448 PWs)   bands (ev):

   -74.7998 -48.3454 -48.3447 -48.3254 -48.3251 -48.3112 -39.1143 -39.0853
   -39.0185 -13.1017 -13.0389  -6.4493  -6.1865  -5.3098  -4.5645  -4.2680
    -3.3883  -0.8682   1.2894   1.9870   2.8682   4.6458   5.0875   6.1807
     8.2124   9.3283   9.4939  10.1360  10.1373  10.3535  10.4795  10.5879
    10.6211  10.7752  10.9216  11.0526

     highest occupied, lowest unoccupied level (ev):    -0.8682    0.7116

!    total energy              =   -1228.50468287 Ry
     total all-electron energy =    -37944.595113 Ry
     estimated scf accuracy    <          7.2E-09 Ry

     The total energy is the sum of the following terms:
     one-electron contribution =   -2968.10878426 Ry
     hartree contribution      =    1481.67981214 Ry
     xc contribution           =     -73.70155569 Ry
     ewald contribution        =    1124.24065812 Ry
     one-center paw contrib.   =    -792.61481319 Ry

     convergence has been achieved in  19 iterations

     Writing all to output data dir ./work/WSSe.save/

     init_run     :      3.34s CPU      3.58s WALL (       1 calls)
     electrons    :    148.52s CPU    155.48s WALL (       1 calls)

     Called by init_run:
     wfcinit      :      1.86s CPU      2.00s WALL (       1 calls)
     potinit      :      0.42s CPU      0.44s WALL (       1 calls)
     hinit0       :      0.83s CPU      0.84s WALL (       1 calls)

     Called by electrons:
     c_bands      :    124.35s CPU    129.96s WALL (      20 calls)
     sum_band     :     17.54s CPU     18.73s WALL (      20 calls)
     v_of_rho     :      0.44s CPU      0.50s WALL (      20 calls)
     newd         :      3.18s CPU      3.25s WALL (      20 calls)
     PAW_pot      :      3.12s CPU      3.20s WALL (      20 calls)
     mix_rho      :      0.17s CPU      0.18s WALL (      20 calls)

     Called by c_bands:
     init_us_2    :      1.08s CPU      1.09s WALL (     779 calls)
     init_us_2:cp :      1.07s CPU      1.09s WALL (     779 calls)
     cegterg      :    120.74s CPU    126.28s WALL (     380 calls)

     Called by *egterg:
     cdiaghg      :      6.21s CPU      6.25s WALL (    1681 calls)
     h_psi        :     60.45s CPU     65.68s WALL (    1719 calls)
     s_psi        :      7.55s CPU      7.61s WALL (    1719 calls)
     g_psi        :      0.17s CPU      0.17s WALL (    1320 calls)

     Called by h_psi:
     h_psi:calbec :      9.53s CPU      9.93s WALL (    1719 calls)
     vloc_psi     :     42.78s CPU     47.55s WALL (    1719 calls)
     add_vuspsi   :      7.65s CPU      7.71s WALL (    1719 calls)

     General routines
     calbec       :     13.31s CPU     13.83s WALL (    2099 calls)
     fft          :      0.63s CPU      0.66s WALL (     221 calls)
     ffts         :      0.03s CPU      0.03s WALL (      20 calls)
     fftw         :     47.25s CPU     52.56s WALL (   82002 calls)

     Parallel routines

     PWSCF        :   2m32.55s CPU   2m40.06s WALL


   This run was terminated on:  15:48:41  30Jan2023            

=------------------------------------------------------------------------------=
   JOB DONE.
=------------------------------------------------------------------------------=
