
     Program PWSCF v.7.1 starts on 30Jan2023 at 15:48:42 

     This program is part of the open-source Quantum ESPRESSO suite
     for quantum simulation of materials; please cite
         "P. Giannozzi et al., J. Phys.:Condens. Matter 21 395502 (2009);
         "P. Giannozzi et al., J. Phys.:Condens. Matter 29 465901 (2017);
         "P. Giannozzi et al., J. Chem. Phys. 152 154105 (2020);
          URL http://www.quantum-espresso.org", 
     in publications or presentations arising from this work. More details at
     http://www.quantum-espresso.org/quote

     Parallel version (MPI), running on    12 processors

     MPI processes distributed on     1 nodes
     88004 MiB available memory on the printing compute node when the environment starts

     Waiting for input...
     Reading input from standard input

     Current dimensions of program PWSCF are:
     Max number of different atomic species (ntypx) = 10
     Max number of k-points (npk) =  40000
     Max angular momentum in pseudopotentials (lmaxx) =  4

     Atomic positions and unit cell read from directory:
     ./work/WSSe.save/
     Atomic positions from file used, from input discarded

     file W.pbe-spn-kjpaw_psl.1.0.0.UPF: wavefunction(s)  6S 5P 5D renormalized
     file S.pbe-n-kjpaw_psl.1.0.0.UPF: wavefunction(s)  3S 3P renormalized
     file Se.pbe-dn-kjpaw_psl.1.0.0.UPF: wavefunction(s)  4S 4P 3D renormalized

     R & G space division:  proc/nbgrp/npool/nimage =      12
     Subspace diagonalization in iterative solution of the eigenvalue problem:
     a serial algorithm will be used


     Parallelization info
     --------------------
     sticks:   dense  smooth     PW     G-vecs:    dense   smooth      PW
     Min          49      49     16                 7632     7632    1406
     Max          51      51     17                 7669     7669    1419
     Sum         595     595    199                91835    91835   16951

     Using Slab Decomposition



     bravais-lattice index     =            0
     lattice parameter (alat)  =       5.9796  a.u.
     unit-cell volume          =    1462.8984 (a.u.)^3
     number of atoms/cell      =            3
     number of atomic types    =            3
     number of electrons       =        36.00
     number of Kohn-Sham states=           36
     kinetic-energy cutoff     =      60.0000  Ry
     charge density cutoff     =     240.0000  Ry
     Exchange-correlation= SLA  PW   PBX  PBC
                           (   1   4   3   4   0   0   0)

     celldm(1)=   5.979603  celldm(2)=   0.000000  celldm(3)=   0.000000
     celldm(4)=   0.000000  celldm(5)=   0.000000  celldm(6)=   0.000000

     crystal axes: (cart. coord. in units of alat)
               a(1) = (   1.000000   0.000000   0.000000 )  
               a(2) = (  -0.500000   0.866025   0.000000 )  
               a(3) = (   0.000000   0.000000   7.900718 )  

     reciprocal axes: (cart. coord. in units 2 pi/alat)
               b(1) = (  1.000000  0.577350 -0.000000 )  
               b(2) = (  0.000000  1.154701  0.000000 )  
               b(3) = (  0.000000 -0.000000  0.126571 )  


     PseudoPot. # 1 for W  read from file:
     /home/mainadmin/research/danu/pseudo/W.pbe-spn-kjpaw_psl.1.0.0.UPF
     MD5 check sum: 03c3df5b60893f488392c7401945500a
     Pseudo is Projector augmented-wave + core cor, Zval = 14.0
     Generated using &quot;atomic&quot; code by A. Dal Corso  v.6.2.2
     Shape of augmentation charge: PSQ
     Using radial grid of 1273 points,  6 beta functions with: 
                l(1) =   0
                l(2) =   0
                l(3) =   1
                l(4) =   1
                l(5) =   2
                l(6) =   2
     Q(r) pseudized with 0 coefficients 


     PseudoPot. # 2 for S  read from file:
     /home/mainadmin/research/danu/pseudo/S.pbe-n-kjpaw_psl.1.0.0.UPF
     MD5 check sum: fb45dfebcf3e72a4e1bd4a866ec2e262
     Pseudo is Projector augmented-wave + core cor, Zval =  6.0
     Generated using &quot;atomic&quot; code by A. Dal Corso  v.6.3
     Shape of augmentation charge: PSQ
     Using radial grid of 1151 points,  6 beta functions with: 
                l(1) =   0
                l(2) =   0
                l(3) =   1
                l(4) =   1
                l(5) =   2
                l(6) =   2
     Q(r) pseudized with 0 coefficients 


     PseudoPot. # 3 for Se read from file:
     /home/mainadmin/research/danu/pseudo/Se.pbe-dn-kjpaw_psl.1.0.0.UPF
     MD5 check sum: ac240dd2bae32a30e0bf3a38df9c8785
     Pseudo is Projector augmented-wave + core cor, Zval = 16.0
     Generated using &quot;atomic&quot; code by A. Dal Corso  v.6.3
     Shape of augmentation charge: PSQ
     Using radial grid of 1211 points,  6 beta functions with: 
                l(1) =   0
                l(2) =   0
                l(3) =   1
                l(4) =   1
                l(5) =   2
                l(6) =   2
     Q(r) pseudized with 0 coefficients 


     atomic species   valence    mass     pseudopotential
        W             14.00   183.84000     W ( 1.00)
        S              6.00    32.06500     S ( 1.00)
        Se            16.00    78.96000     Se( 1.00)

     No symmetry found


                                    s                        frac. trans.

      isym =  1     identity                                     

 cryst.   s( 1) = (     1          0          0      )
                  (     0          1          0      )
                  (     0          0          1      )

 cart.    s( 1) = (  1.0000000  0.0000000  0.0000000 )
                  (  0.0000000  1.0000000  0.0000000 )
                  (  0.0000000  0.0000000  1.0000000 )


   Cartesian axes

     site n.     atom                  positions (alat units)
         1           Se  tau(   1) = (   0.5000000   0.2886751   4.4957047  )
         2           W   tau(   2) = (  -0.0000000   0.5773503   3.9245440  )
         3           S   tau(   3) = (   0.5000000   0.2886751  -4.4698899  )

   Crystallographic axes

     site n.     atom                  positions (cryst. coord.)
         1           Se  tau(   1) = (  0.6666667  0.3333333  0.5690249  )
         2           W   tau(   2) = (  0.3333333  0.6666667  0.4967326  )
         3           S   tau(   3) = (  0.6666667  0.3333333 -0.5657574  )

     number of k points=  1154 (tetrahedron method)
                       cart. coord. in units 2pi/alat
        k(    1) = (   0.0000000   0.0000000   0.0000000), wk =   0.0008681
        k(    2) = (   0.0000000   0.0240563   0.0000000), wk =   0.0017361
        k(    3) = (   0.0000000   0.0481125   0.0000000), wk =   0.0017361
        k(    4) = (   0.0000000   0.0721688   0.0000000), wk =   0.0017361
        k(    5) = (   0.0000000   0.0962250   0.0000000), wk =   0.0017361
        k(    6) = (   0.0000000   0.1202813   0.0000000), wk =   0.0017361
        k(    7) = (   0.0000000   0.1443376   0.0000000), wk =   0.0017361
        k(    8) = (   0.0000000   0.1683938   0.0000000), wk =   0.0017361
        k(    9) = (   0.0000000   0.1924501   0.0000000), wk =   0.0017361
        k(   10) = (   0.0000000   0.2165064   0.0000000), wk =   0.0017361
        k(   11) = (   0.0000000   0.2405626   0.0000000), wk =   0.0017361
        k(   12) = (   0.0000000   0.2646189   0.0000000), wk =   0.0017361
        k(   13) = (   0.0000000   0.2886751   0.0000000), wk =   0.0017361
        k(   14) = (   0.0000000   0.3127314   0.0000000), wk =   0.0017361
        k(   15) = (   0.0000000   0.3367877   0.0000000), wk =   0.0017361
        k(   16) = (   0.0000000   0.3608439   0.0000000), wk =   0.0017361
        k(   17) = (   0.0000000   0.3849002   0.0000000), wk =   0.0017361
        k(   18) = (   0.0000000   0.4089564   0.0000000), wk =   0.0017361
        k(   19) = (   0.0000000   0.4330127   0.0000000), wk =   0.0017361
        k(   20) = (   0.0000000   0.4570690   0.0000000), wk =   0.0017361
        k(   21) = (   0.0000000   0.4811252   0.0000000), wk =   0.0017361
        k(   22) = (   0.0000000   0.5051815   0.0000000), wk =   0.0017361
        k(   23) = (   0.0000000   0.5292377   0.0000000), wk =   0.0017361
        k(   24) = (   0.0000000   0.5532940   0.0000000), wk =   0.0017361
        k(   25) = (   0.0000000  -0.5773503   0.0000000), wk =   0.0008681
        k(   26) = (   0.0208333   0.0120281   0.0000000), wk =   0.0017361
        k(   27) = (   0.0208333   0.0360844   0.0000000), wk =   0.0017361
        k(   28) = (   0.0208333   0.0601407   0.0000000), wk =   0.0017361
        k(   29) = (   0.0208333   0.0841969   0.0000000), wk =   0.0017361
        k(   30) = (   0.0208333   0.1082532   0.0000000), wk =   0.0017361
        k(   31) = (   0.0208333   0.1323094   0.0000000), wk =   0.0017361
        k(   32) = (   0.0208333   0.1563657   0.0000000), wk =   0.0017361
        k(   33) = (   0.0208333   0.1804220   0.0000000), wk =   0.0017361
        k(   34) = (   0.0208333   0.2044782   0.0000000), wk =   0.0017361
        k(   35) = (   0.0208333   0.2285345   0.0000000), wk =   0.0017361
        k(   36) = (   0.0208333   0.2525907   0.0000000), wk =   0.0017361
        k(   37) = (   0.0208333   0.2766470   0.0000000), wk =   0.0017361
        k(   38) = (   0.0208333   0.3007033   0.0000000), wk =   0.0017361
        k(   39) = (   0.0208333   0.3247595   0.0000000), wk =   0.0017361
        k(   40) = (   0.0208333   0.3488158   0.0000000), wk =   0.0017361
        k(   41) = (   0.0208333   0.3728720   0.0000000), wk =   0.0017361
        k(   42) = (   0.0208333   0.3969283   0.0000000), wk =   0.0017361
        k(   43) = (   0.0208333   0.4209846   0.0000000), wk =   0.0017361
        k(   44) = (   0.0208333   0.4450408   0.0000000), wk =   0.0017361
        k(   45) = (   0.0208333   0.4690971   0.0000000), wk =   0.0017361
        k(   46) = (   0.0208333   0.4931534   0.0000000), wk =   0.0017361
        k(   47) = (   0.0208333   0.5172096   0.0000000), wk =   0.0017361
        k(   48) = (   0.0208333   0.5412659   0.0000000), wk =   0.0017361
        k(   49) = (   0.0208333   0.5653221   0.0000000), wk =   0.0017361
        k(   50) = (   0.0208333  -0.5653221   0.0000000), wk =   0.0017361
        k(   51) = (   0.0208333  -0.5412659   0.0000000), wk =   0.0017361
        k(   52) = (   0.0208333  -0.5172096   0.0000000), wk =   0.0017361
        k(   53) = (   0.0208333  -0.4931534   0.0000000), wk =   0.0017361
        k(   54) = (   0.0208333  -0.4690971   0.0000000), wk =   0.0017361
        k(   55) = (   0.0208333  -0.4450408   0.0000000), wk =   0.0017361
        k(   56) = (   0.0208333  -0.4209846   0.0000000), wk =   0.0017361
        k(   57) = (   0.0208333  -0.3969283   0.0000000), wk =   0.0017361
        k(   58) = (   0.0208333  -0.3728720   0.0000000), wk =   0.0017361
        k(   59) = (   0.0208333  -0.3488158   0.0000000), wk =   0.0017361
        k(   60) = (   0.0208333  -0.3247595   0.0000000), wk =   0.0017361
        k(   61) = (   0.0208333  -0.3007033   0.0000000), wk =   0.0017361
        k(   62) = (   0.0208333  -0.2766470   0.0000000), wk =   0.0017361
        k(   63) = (   0.0208333  -0.2525907   0.0000000), wk =   0.0017361
        k(   64) = (   0.0208333  -0.2285345   0.0000000), wk =   0.0017361
        k(   65) = (   0.0208333  -0.2044782   0.0000000), wk =   0.0017361
        k(   66) = (   0.0208333  -0.1804220   0.0000000), wk =   0.0017361
        k(   67) = (   0.0208333  -0.1563657   0.0000000), wk =   0.0017361
        k(   68) = (   0.0208333  -0.1323094   0.0000000), wk =   0.0017361
        k(   69) = (   0.0208333  -0.1082532   0.0000000), wk =   0.0017361
        k(   70) = (   0.0208333  -0.0841969   0.0000000), wk =   0.0017361
        k(   71) = (   0.0208333  -0.0601407   0.0000000), wk =   0.0017361
        k(   72) = (   0.0208333  -0.0360844   0.0000000), wk =   0.0017361
        k(   73) = (   0.0208333  -0.0120281   0.0000000), wk =   0.0017361
        k(   74) = (   0.0416667   0.0240563   0.0000000), wk =   0.0017361
        k(   75) = (   0.0416667   0.0481125   0.0000000), wk =   0.0017361
        k(   76) = (   0.0416667   0.0721688   0.0000000), wk =   0.0017361
        k(   77) = (   0.0416667   0.0962250   0.0000000), wk =   0.0017361
        k(   78) = (   0.0416667   0.1202813   0.0000000), wk =   0.0017361
        k(   79) = (   0.0416667   0.1443376   0.0000000), wk =   0.0017361
        k(   80) = (   0.0416667   0.1683938   0.0000000), wk =   0.0017361
        k(   81) = (   0.0416667   0.1924501   0.0000000), wk =   0.0017361
        k(   82) = (   0.0416667   0.2165064   0.0000000), wk =   0.0017361
        k(   83) = (   0.0416667   0.2405626   0.0000000), wk =   0.0017361
        k(   84) = (   0.0416667   0.2646189   0.0000000), wk =   0.0017361
        k(   85) = (   0.0416667   0.2886751   0.0000000), wk =   0.0017361
        k(   86) = (   0.0416667   0.3127314   0.0000000), wk =   0.0017361
        k(   87) = (   0.0416667   0.3367877   0.0000000), wk =   0.0017361
        k(   88) = (   0.0416667   0.3608439   0.0000000), wk =   0.0017361
        k(   89) = (   0.0416667   0.3849002   0.0000000), wk =   0.0017361
        k(   90) = (   0.0416667   0.4089564   0.0000000), wk =   0.0017361
        k(   91) = (   0.0416667   0.4330127   0.0000000), wk =   0.0017361
        k(   92) = (   0.0416667   0.4570690   0.0000000), wk =   0.0017361
        k(   93) = (   0.0416667   0.4811252   0.0000000), wk =   0.0017361
        k(   94) = (   0.0416667   0.5051815   0.0000000), wk =   0.0017361
        k(   95) = (   0.0416667   0.5292377   0.0000000), wk =   0.0017361
        k(   96) = (   0.0416667   0.5532940   0.0000000), wk =   0.0017361
        k(   97) = (   0.0416667   0.5773503   0.0000000), wk =   0.0017361
        k(   98) = (   0.0416667  -0.5532940   0.0000000), wk =   0.0017361
        k(   99) = (   0.0416667  -0.5292377   0.0000000), wk =   0.0017361
        k(  100) = (   0.0416667  -0.5051815   0.0000000), wk =   0.0017361
        k(  101) = (   0.0416667  -0.4811252   0.0000000), wk =   0.0017361
        k(  102) = (   0.0416667  -0.4570690   0.0000000), wk =   0.0017361
        k(  103) = (   0.0416667  -0.4330127   0.0000000), wk =   0.0017361
        k(  104) = (   0.0416667  -0.4089564   0.0000000), wk =   0.0017361
        k(  105) = (   0.0416667  -0.3849002   0.0000000), wk =   0.0017361
        k(  106) = (   0.0416667  -0.3608439   0.0000000), wk =   0.0017361
        k(  107) = (   0.0416667  -0.3367877   0.0000000), wk =   0.0017361
        k(  108) = (   0.0416667  -0.3127314   0.0000000), wk =   0.0017361
        k(  109) = (   0.0416667  -0.2886751   0.0000000), wk =   0.0017361
        k(  110) = (   0.0416667  -0.2646189   0.0000000), wk =   0.0017361
        k(  111) = (   0.0416667  -0.2405626   0.0000000), wk =   0.0017361
        k(  112) = (   0.0416667  -0.2165064   0.0000000), wk =   0.0017361
        k(  113) = (   0.0416667  -0.1924501   0.0000000), wk =   0.0017361
        k(  114) = (   0.0416667  -0.1683938   0.0000000), wk =   0.0017361
        k(  115) = (   0.0416667  -0.1443376   0.0000000), wk =   0.0017361
        k(  116) = (   0.0416667  -0.1202813   0.0000000), wk =   0.0017361
        k(  117) = (   0.0416667  -0.0962250   0.0000000), wk =   0.0017361
        k(  118) = (   0.0416667  -0.0721688   0.0000000), wk =   0.0017361
        k(  119) = (   0.0416667  -0.0481125   0.0000000), wk =   0.0017361
        k(  120) = (   0.0416667  -0.0240563   0.0000000), wk =   0.0017361
        k(  121) = (   0.0416667  -0.0000000   0.0000000), wk =   0.0017361
        k(  122) = (   0.0625000   0.0360844   0.0000000), wk =   0.0017361
        k(  123) = (   0.0625000   0.0601407   0.0000000), wk =   0.0017361
        k(  124) = (   0.0625000   0.0841969   0.0000000), wk =   0.0017361
        k(  125) = (   0.0625000   0.1082532   0.0000000), wk =   0.0017361
        k(  126) = (   0.0625000   0.1323094   0.0000000), wk =   0.0017361
        k(  127) = (   0.0625000   0.1563657   0.0000000), wk =   0.0017361
        k(  128) = (   0.0625000   0.1804220   0.0000000), wk =   0.0017361
        k(  129) = (   0.0625000   0.2044782   0.0000000), wk =   0.0017361
        k(  130) = (   0.0625000   0.2285345   0.0000000), wk =   0.0017361
        k(  131) = (   0.0625000   0.2525907   0.0000000), wk =   0.0017361
        k(  132) = (   0.0625000   0.2766470   0.0000000), wk =   0.0017361
        k(  133) = (   0.0625000   0.3007033   0.0000000), wk =   0.0017361
        k(  134) = (   0.0625000   0.3247595   0.0000000), wk =   0.0017361
        k(  135) = (   0.0625000   0.3488158   0.0000000), wk =   0.0017361
        k(  136) = (   0.0625000   0.3728720   0.0000000), wk =   0.0017361
        k(  137) = (   0.0625000   0.3969283   0.0000000), wk =   0.0017361
        k(  138) = (   0.0625000   0.4209846   0.0000000), wk =   0.0017361
        k(  139) = (   0.0625000   0.4450408   0.0000000), wk =   0.0017361
        k(  140) = (   0.0625000   0.4690971   0.0000000), wk =   0.0017361
        k(  141) = (   0.0625000   0.4931534   0.0000000), wk =   0.0017361
        k(  142) = (   0.0625000   0.5172096   0.0000000), wk =   0.0017361
        k(  143) = (   0.0625000   0.5412659   0.0000000), wk =   0.0017361
        k(  144) = (   0.0625000   0.5653221   0.0000000), wk =   0.0017361
        k(  145) = (   0.0625000   0.5893784   0.0000000), wk =   0.0017361
        k(  146) = (   0.0625000  -0.5412659   0.0000000), wk =   0.0017361
        k(  147) = (   0.0625000  -0.5172096   0.0000000), wk =   0.0017361
        k(  148) = (   0.0625000  -0.4931534   0.0000000), wk =   0.0017361
        k(  149) = (   0.0625000  -0.4690971   0.0000000), wk =   0.0017361
        k(  150) = (   0.0625000  -0.4450408   0.0000000), wk =   0.0017361
        k(  151) = (   0.0625000  -0.4209846   0.0000000), wk =   0.0017361
        k(  152) = (   0.0625000  -0.3969283   0.0000000), wk =   0.0017361
        k(  153) = (   0.0625000  -0.3728720   0.0000000), wk =   0.0017361
        k(  154) = (   0.0625000  -0.3488158   0.0000000), wk =   0.0017361
        k(  155) = (   0.0625000  -0.3247595   0.0000000), wk =   0.0017361
        k(  156) = (   0.0625000  -0.3007033   0.0000000), wk =   0.0017361
        k(  157) = (   0.0625000  -0.2766470   0.0000000), wk =   0.0017361
        k(  158) = (   0.0625000  -0.2525907   0.0000000), wk =   0.0017361
        k(  159) = (   0.0625000  -0.2285345   0.0000000), wk =   0.0017361
        k(  160) = (   0.0625000  -0.2044782   0.0000000), wk =   0.0017361
        k(  161) = (   0.0625000  -0.1804220   0.0000000), wk =   0.0017361
        k(  162) = (   0.0625000  -0.1563657   0.0000000), wk =   0.0017361
        k(  163) = (   0.0625000  -0.1323094   0.0000000), wk =   0.0017361
        k(  164) = (   0.0625000  -0.1082532   0.0000000), wk =   0.0017361
        k(  165) = (   0.0625000  -0.0841969   0.0000000), wk =   0.0017361
        k(  166) = (   0.0625000  -0.0601407   0.0000000), wk =   0.0017361
        k(  167) = (   0.0625000  -0.0360844   0.0000000), wk =   0.0017361
        k(  168) = (   0.0625000  -0.0120281   0.0000000), wk =   0.0017361
        k(  169) = (   0.0625000   0.0120281   0.0000000), wk =   0.0017361
        k(  170) = (   0.0833333   0.0481125   0.0000000), wk =   0.0017361
        k(  171) = (   0.0833333   0.0721688   0.0000000), wk =   0.0017361
        k(  172) = (   0.0833333   0.0962250   0.0000000), wk =   0.0017361
        k(  173) = (   0.0833333   0.1202813   0.0000000), wk =   0.0017361
        k(  174) = (   0.0833333   0.1443376   0.0000000), wk =   0.0017361
        k(  175) = (   0.0833333   0.1683938   0.0000000), wk =   0.0017361
        k(  176) = (   0.0833333   0.1924501   0.0000000), wk =   0.0017361
        k(  177) = (   0.0833333   0.2165064   0.0000000), wk =   0.0017361
        k(  178) = (   0.0833333   0.2405626   0.0000000), wk =   0.0017361
        k(  179) = (   0.0833333   0.2646189   0.0000000), wk =   0.0017361
        k(  180) = (   0.0833333   0.2886751   0.0000000), wk =   0.0017361
        k(  181) = (   0.0833333   0.3127314   0.0000000), wk =   0.0017361
        k(  182) = (   0.0833333   0.3367877   0.0000000), wk =   0.0017361
        k(  183) = (   0.0833333   0.3608439   0.0000000), wk =   0.0017361
        k(  184) = (   0.0833333   0.3849002   0.0000000), wk =   0.0017361
        k(  185) = (   0.0833333   0.4089564   0.0000000), wk =   0.0017361
        k(  186) = (   0.0833333   0.4330127   0.0000000), wk =   0.0017361
        k(  187) = (   0.0833333   0.4570690   0.0000000), wk =   0.0017361
        k(  188) = (   0.0833333   0.4811252   0.0000000), wk =   0.0017361
        k(  189) = (   0.0833333   0.5051815   0.0000000), wk =   0.0017361
        k(  190) = (   0.0833333   0.5292377   0.0000000), wk =   0.0017361
        k(  191) = (   0.0833333   0.5532940   0.0000000), wk =   0.0017361
        k(  192) = (   0.0833333   0.5773503   0.0000000), wk =   0.0017361
        k(  193) = (   0.0833333   0.6014065   0.0000000), wk =   0.0017361
        k(  194) = (   0.0833333  -0.5292377   0.0000000), wk =   0.0017361
        k(  195) = (   0.0833333  -0.5051815   0.0000000), wk =   0.0017361
        k(  196) = (   0.0833333  -0.4811252   0.0000000), wk =   0.0017361
        k(  197) = (   0.0833333  -0.4570690   0.0000000), wk =   0.0017361
        k(  198) = (   0.0833333  -0.4330127   0.0000000), wk =   0.0017361
        k(  199) = (   0.0833333  -0.4089564   0.0000000), wk =   0.0017361
        k(  200) = (   0.0833333  -0.3849002   0.0000000), wk =   0.0017361
        k(  201) = (   0.0833333  -0.3608439   0.0000000), wk =   0.0017361
        k(  202) = (   0.0833333  -0.3367877   0.0000000), wk =   0.0017361
        k(  203) = (   0.0833333  -0.3127314   0.0000000), wk =   0.0017361
        k(  204) = (   0.0833333  -0.2886751   0.0000000), wk =   0.0017361
        k(  205) = (   0.0833333  -0.2646189   0.0000000), wk =   0.0017361
        k(  206) = (   0.0833333  -0.2405626   0.0000000), wk =   0.0017361
        k(  207) = (   0.0833333  -0.2165064   0.0000000), wk =   0.0017361
        k(  208) = (   0.0833333  -0.1924501   0.0000000), wk =   0.0017361
        k(  209) = (   0.0833333  -0.1683938   0.0000000), wk =   0.0017361
        k(  210) = (   0.0833333  -0.1443376   0.0000000), wk =   0.0017361
        k(  211) = (   0.0833333  -0.1202813   0.0000000), wk =   0.0017361
        k(  212) = (   0.0833333  -0.0962250   0.0000000), wk =   0.0017361
        k(  213) = (   0.0833333  -0.0721688   0.0000000), wk =   0.0017361
        k(  214) = (   0.0833333  -0.0481125   0.0000000), wk =   0.0017361
        k(  215) = (   0.0833333  -0.0240563   0.0000000), wk =   0.0017361
        k(  216) = (   0.0833333   0.0000000   0.0000000), wk =   0.0017361
        k(  217) = (   0.0833333   0.0240563   0.0000000), wk =   0.0017361
        k(  218) = (   0.1041667   0.0601407   0.0000000), wk =   0.0017361
        k(  219) = (   0.1041667   0.0841969   0.0000000), wk =   0.0017361
        k(  220) = (   0.1041667   0.1082532   0.0000000), wk =   0.0017361
        k(  221) = (   0.1041667   0.1323094   0.0000000), wk =   0.0017361
        k(  222) = (   0.1041667   0.1563657   0.0000000), wk =   0.0017361
        k(  223) = (   0.1041667   0.1804220   0.0000000), wk =   0.0017361
        k(  224) = (   0.1041667   0.2044782   0.0000000), wk =   0.0017361
        k(  225) = (   0.1041667   0.2285345   0.0000000), wk =   0.0017361
        k(  226) = (   0.1041667   0.2525907   0.0000000), wk =   0.0017361
        k(  227) = (   0.1041667   0.2766470   0.0000000), wk =   0.0017361
        k(  228) = (   0.1041667   0.3007033   0.0000000), wk =   0.0017361
        k(  229) = (   0.1041667   0.3247595   0.0000000), wk =   0.0017361
        k(  230) = (   0.1041667   0.3488158   0.0000000), wk =   0.0017361
        k(  231) = (   0.1041667   0.3728720   0.0000000), wk =   0.0017361
        k(  232) = (   0.1041667   0.3969283   0.0000000), wk =   0.0017361
        k(  233) = (   0.1041667   0.4209846   0.0000000), wk =   0.0017361
        k(  234) = (   0.1041667   0.4450408   0.0000000), wk =   0.0017361
        k(  235) = (   0.1041667   0.4690971   0.0000000), wk =   0.0017361
        k(  236) = (   0.1041667   0.4931534   0.0000000), wk =   0.0017361
        k(  237) = (   0.1041667   0.5172096   0.0000000), wk =   0.0017361
        k(  238) = (   0.1041667   0.5412659   0.0000000), wk =   0.0017361
        k(  239) = (   0.1041667   0.5653221   0.0000000), wk =   0.0017361
        k(  240) = (   0.1041667   0.5893784   0.0000000), wk =   0.0017361
        k(  241) = (   0.1041667   0.6134347   0.0000000), wk =   0.0017361
        k(  242) = (   0.1041667  -0.5172096   0.0000000), wk =   0.0017361
        k(  243) = (   0.1041667  -0.4931534   0.0000000), wk =   0.0017361
        k(  244) = (   0.1041667  -0.4690971   0.0000000), wk =   0.0017361
        k(  245) = (   0.1041667  -0.4450408   0.0000000), wk =   0.0017361
        k(  246) = (   0.1041667  -0.4209846   0.0000000), wk =   0.0017361
        k(  247) = (   0.1041667  -0.3969283   0.0000000), wk =   0.0017361
        k(  248) = (   0.1041667  -0.3728720   0.0000000), wk =   0.0017361
        k(  249) = (   0.1041667  -0.3488158   0.0000000), wk =   0.0017361
        k(  250) = (   0.1041667  -0.3247595   0.0000000), wk =   0.0017361
        k(  251) = (   0.1041667  -0.3007033   0.0000000), wk =   0.0017361
        k(  252) = (   0.1041667  -0.2766470   0.0000000), wk =   0.0017361
        k(  253) = (   0.1041667  -0.2525907   0.0000000), wk =   0.0017361
        k(  254) = (   0.1041667  -0.2285345   0.0000000), wk =   0.0017361
        k(  255) = (   0.1041667  -0.2044782   0.0000000), wk =   0.0017361
        k(  256) = (   0.1041667  -0.1804220   0.0000000), wk =   0.0017361
        k(  257) = (   0.1041667  -0.1563657   0.0000000), wk =   0.0017361
        k(  258) = (   0.1041667  -0.1323094   0.0000000), wk =   0.0017361
        k(  259) = (   0.1041667  -0.1082532   0.0000000), wk =   0.0017361
        k(  260) = (   0.1041667  -0.0841969   0.0000000), wk =   0.0017361
        k(  261) = (   0.1041667  -0.0601407   0.0000000), wk =   0.0017361
        k(  262) = (   0.1041667  -0.0360844   0.0000000), wk =   0.0017361
        k(  263) = (   0.1041667  -0.0120281   0.0000000), wk =   0.0017361
        k(  264) = (   0.1041667   0.0120281   0.0000000), wk =   0.0017361
        k(  265) = (   0.1041667   0.0360844   0.0000000), wk =   0.0017361
        k(  266) = (   0.1250000   0.0721688   0.0000000), wk =   0.0017361
        k(  267) = (   0.1250000   0.0962250   0.0000000), wk =   0.0017361
        k(  268) = (   0.1250000   0.1202813   0.0000000), wk =   0.0017361
        k(  269) = (   0.1250000   0.1443376   0.0000000), wk =   0.0017361
        k(  270) = (   0.1250000   0.1683938   0.0000000), wk =   0.0017361
        k(  271) = (   0.1250000   0.1924501   0.0000000), wk =   0.0017361
        k(  272) = (   0.1250000   0.2165064   0.0000000), wk =   0.0017361
        k(  273) = (   0.1250000   0.2405626   0.0000000), wk =   0.0017361
        k(  274) = (   0.1250000   0.2646189   0.0000000), wk =   0.0017361
        k(  275) = (   0.1250000   0.2886751   0.0000000), wk =   0.0017361
        k(  276) = (   0.1250000   0.3127314   0.0000000), wk =   0.0017361
        k(  277) = (   0.1250000   0.3367877   0.0000000), wk =   0.0017361
        k(  278) = (   0.1250000   0.3608439   0.0000000), wk =   0.0017361
        k(  279) = (   0.1250000   0.3849002   0.0000000), wk =   0.0017361
        k(  280) = (   0.1250000   0.4089564   0.0000000), wk =   0.0017361
        k(  281) = (   0.1250000   0.4330127   0.0000000), wk =   0.0017361
        k(  282) = (   0.1250000   0.4570690   0.0000000), wk =   0.0017361
        k(  283) = (   0.1250000   0.4811252   0.0000000), wk =   0.0017361
        k(  284) = (   0.1250000   0.5051815   0.0000000), wk =   0.0017361
        k(  285) = (   0.1250000   0.5292377   0.0000000), wk =   0.0017361
        k(  286) = (   0.1250000   0.5532940   0.0000000), wk =   0.0017361
        k(  287) = (   0.1250000   0.5773503   0.0000000), wk =   0.0017361
        k(  288) = (   0.1250000   0.6014065   0.0000000), wk =   0.0017361
        k(  289) = (   0.1250000   0.6254628   0.0000000), wk =   0.0017361
        k(  290) = (   0.1250000  -0.5051815   0.0000000), wk =   0.0017361
        k(  291) = (   0.1250000  -0.4811252   0.0000000), wk =   0.0017361
        k(  292) = (   0.1250000  -0.4570690   0.0000000), wk =   0.0017361
        k(  293) = (   0.1250000  -0.4330127   0.0000000), wk =   0.0017361
        k(  294) = (   0.1250000  -0.4089564   0.0000000), wk =   0.0017361
        k(  295) = (   0.1250000  -0.3849002   0.0000000), wk =   0.0017361
        k(  296) = (   0.1250000  -0.3608439   0.0000000), wk =   0.0017361
        k(  297) = (   0.1250000  -0.3367877   0.0000000), wk =   0.0017361
        k(  298) = (   0.1250000  -0.3127314   0.0000000), wk =   0.0017361
        k(  299) = (   0.1250000  -0.2886751   0.0000000), wk =   0.0017361
        k(  300) = (   0.1250000  -0.2646189   0.0000000), wk =   0.0017361
        k(  301) = (   0.1250000  -0.2405626   0.0000000), wk =   0.0017361
        k(  302) = (   0.1250000  -0.2165064   0.0000000), wk =   0.0017361
        k(  303) = (   0.1250000  -0.1924501   0.0000000), wk =   0.0017361
        k(  304) = (   0.1250000  -0.1683938   0.0000000), wk =   0.0017361
        k(  305) = (   0.1250000  -0.1443376   0.0000000), wk =   0.0017361
        k(  306) = (   0.1250000  -0.1202813   0.0000000), wk =   0.0017361
        k(  307) = (   0.1250000  -0.0962250   0.0000000), wk =   0.0017361
        k(  308) = (   0.1250000  -0.0721688   0.0000000), wk =   0.0017361
        k(  309) = (   0.1250000  -0.0481125   0.0000000), wk =   0.0017361
        k(  310) = (   0.1250000  -0.0240563   0.0000000), wk =   0.0017361
        k(  311) = (   0.1250000   0.0000000   0.0000000), wk =   0.0017361
        k(  312) = (   0.1250000   0.0240563   0.0000000), wk =   0.0017361
        k(  313) = (   0.1250000   0.0481125   0.0000000), wk =   0.0017361
        k(  314) = (   0.1458333   0.0841969   0.0000000), wk =   0.0017361
        k(  315) = (   0.1458333   0.1082532   0.0000000), wk =   0.0017361
        k(  316) = (   0.1458333   0.1323094   0.0000000), wk =   0.0017361
        k(  317) = (   0.1458333   0.1563657   0.0000000), wk =   0.0017361
        k(  318) = (   0.1458333   0.1804220   0.0000000), wk =   0.0017361
        k(  319) = (   0.1458333   0.2044782   0.0000000), wk =   0.0017361
        k(  320) = (   0.1458333   0.2285345   0.0000000), wk =   0.0017361
        k(  321) = (   0.1458333   0.2525907   0.0000000), wk =   0.0017361
        k(  322) = (   0.1458333   0.2766470   0.0000000), wk =   0.0017361
        k(  323) = (   0.1458333   0.3007033   0.0000000), wk =   0.0017361
        k(  324) = (   0.1458333   0.3247595   0.0000000), wk =   0.0017361
        k(  325) = (   0.1458333   0.3488158   0.0000000), wk =   0.0017361
        k(  326) = (   0.1458333   0.3728720   0.0000000), wk =   0.0017361
        k(  327) = (   0.1458333   0.3969283   0.0000000), wk =   0.0017361
        k(  328) = (   0.1458333   0.4209846   0.0000000), wk =   0.0017361
        k(  329) = (   0.1458333   0.4450408   0.0000000), wk =   0.0017361
        k(  330) = (   0.1458333   0.4690971   0.0000000), wk =   0.0017361
        k(  331) = (   0.1458333   0.4931534   0.0000000), wk =   0.0017361
        k(  332) = (   0.1458333   0.5172096   0.0000000), wk =   0.0017361
        k(  333) = (   0.1458333   0.5412659   0.0000000), wk =   0.0017361
        k(  334) = (   0.1458333   0.5653221   0.0000000), wk =   0.0017361
        k(  335) = (   0.1458333   0.5893784   0.0000000), wk =   0.0017361
        k(  336) = (   0.1458333   0.6134347   0.0000000), wk =   0.0017361
        k(  337) = (   0.1458333   0.6374909   0.0000000), wk =   0.0017361
        k(  338) = (   0.1458333  -0.4931534   0.0000000), wk =   0.0017361
        k(  339) = (   0.1458333  -0.4690971   0.0000000), wk =   0.0017361
        k(  340) = (   0.1458333  -0.4450408   0.0000000), wk =   0.0017361
        k(  341) = (   0.1458333  -0.4209846   0.0000000), wk =   0.0017361
        k(  342) = (   0.1458333  -0.3969283   0.0000000), wk =   0.0017361
        k(  343) = (   0.1458333  -0.3728720   0.0000000), wk =   0.0017361
        k(  344) = (   0.1458333  -0.3488158   0.0000000), wk =   0.0017361
        k(  345) = (   0.1458333  -0.3247595   0.0000000), wk =   0.0017361
        k(  346) = (   0.1458333  -0.3007033   0.0000000), wk =   0.0017361
        k(  347) = (   0.1458333  -0.2766470   0.0000000), wk =   0.0017361
        k(  348) = (   0.1458333  -0.2525907   0.0000000), wk =   0.0017361
        k(  349) = (   0.1458333  -0.2285345   0.0000000), wk =   0.0017361
        k(  350) = (   0.1458333  -0.2044782   0.0000000), wk =   0.0017361
        k(  351) = (   0.1458333  -0.1804220   0.0000000), wk =   0.0017361
        k(  352) = (   0.1458333  -0.1563657   0.0000000), wk =   0.0017361
        k(  353) = (   0.1458333  -0.1323094   0.0000000), wk =   0.0017361
        k(  354) = (   0.1458333  -0.1082532   0.0000000), wk =   0.0017361
        k(  355) = (   0.1458333  -0.0841969   0.0000000), wk =   0.0017361
        k(  356) = (   0.1458333  -0.0601407   0.0000000), wk =   0.0017361
        k(  357) = (   0.1458333  -0.0360844   0.0000000), wk =   0.0017361
        k(  358) = (   0.1458333  -0.0120281   0.0000000), wk =   0.0017361
        k(  359) = (   0.1458333   0.0120281   0.0000000), wk =   0.0017361
        k(  360) = (   0.1458333   0.0360844   0.0000000), wk =   0.0017361
        k(  361) = (   0.1458333   0.0601407   0.0000000), wk =   0.0017361
        k(  362) = (   0.1666667   0.0962250   0.0000000), wk =   0.0017361
        k(  363) = (   0.1666667   0.1202813   0.0000000), wk =   0.0017361
        k(  364) = (   0.1666667   0.1443376   0.0000000), wk =   0.0017361
        k(  365) = (   0.1666667   0.1683938   0.0000000), wk =   0.0017361
        k(  366) = (   0.1666667   0.1924501   0.0000000), wk =   0.0017361
        k(  367) = (   0.1666667   0.2165064   0.0000000), wk =   0.0017361
        k(  368) = (   0.1666667   0.2405626   0.0000000), wk =   0.0017361
        k(  369) = (   0.1666667   0.2646189   0.0000000), wk =   0.0017361
        k(  370) = (   0.1666667   0.2886751   0.0000000), wk =   0.0017361
        k(  371) = (   0.1666667   0.3127314   0.0000000), wk =   0.0017361
        k(  372) = (   0.1666667   0.3367877   0.0000000), wk =   0.0017361
        k(  373) = (   0.1666667   0.3608439   0.0000000), wk =   0.0017361
        k(  374) = (   0.1666667   0.3849002   0.0000000), wk =   0.0017361
        k(  375) = (   0.1666667   0.4089564   0.0000000), wk =   0.0017361
        k(  376) = (   0.1666667   0.4330127   0.0000000), wk =   0.0017361
        k(  377) = (   0.1666667   0.4570690   0.0000000), wk =   0.0017361
        k(  378) = (   0.1666667   0.4811252   0.0000000), wk =   0.0017361
        k(  379) = (   0.1666667   0.5051815   0.0000000), wk =   0.0017361
        k(  380) = (   0.1666667   0.5292377   0.0000000), wk =   0.0017361
        k(  381) = (   0.1666667   0.5532940   0.0000000), wk =   0.0017361
        k(  382) = (   0.1666667   0.5773503   0.0000000), wk =   0.0017361
        k(  383) = (   0.1666667   0.6014065   0.0000000), wk =   0.0017361
        k(  384) = (   0.1666667   0.6254628   0.0000000), wk =   0.0017361
        k(  385) = (   0.1666667   0.6495191   0.0000000), wk =   0.0017361
        k(  386) = (   0.1666667  -0.4811252   0.0000000), wk =   0.0017361
        k(  387) = (   0.1666667  -0.4570690   0.0000000), wk =   0.0017361
        k(  388) = (   0.1666667  -0.4330127   0.0000000), wk =   0.0017361
        k(  389) = (   0.1666667  -0.4089564   0.0000000), wk =   0.0017361
        k(  390) = (   0.1666667  -0.3849002   0.0000000), wk =   0.0017361
        k(  391) = (   0.1666667  -0.3608439   0.0000000), wk =   0.0017361
        k(  392) = (   0.1666667  -0.3367877   0.0000000), wk =   0.0017361
        k(  393) = (   0.1666667  -0.3127314   0.0000000), wk =   0.0017361
        k(  394) = (   0.1666667  -0.2886751   0.0000000), wk =   0.0017361
        k(  395) = (   0.1666667  -0.2646189   0.0000000), wk =   0.0017361
        k(  396) = (   0.1666667  -0.2405626   0.0000000), wk =   0.0017361
        k(  397) = (   0.1666667  -0.2165064   0.0000000), wk =   0.0017361
        k(  398) = (   0.1666667  -0.1924501   0.0000000), wk =   0.0017361
        k(  399) = (   0.1666667  -0.1683938   0.0000000), wk =   0.0017361
        k(  400) = (   0.1666667  -0.1443376   0.0000000), wk =   0.0017361
        k(  401) = (   0.1666667  -0.1202813   0.0000000), wk =   0.0017361
        k(  402) = (   0.1666667  -0.0962250   0.0000000), wk =   0.0017361
        k(  403) = (   0.1666667  -0.0721688   0.0000000), wk =   0.0017361
        k(  404) = (   0.1666667  -0.0481125   0.0000000), wk =   0.0017361
        k(  405) = (   0.1666667  -0.0240563   0.0000000), wk =   0.0017361
        k(  406) = (   0.1666667  -0.0000000   0.0000000), wk =   0.0017361
        k(  407) = (   0.1666667   0.0240563   0.0000000), wk =   0.0017361
        k(  408) = (   0.1666667   0.0481125   0.0000000), wk =   0.0017361
        k(  409) = (   0.1666667   0.0721688   0.0000000), wk =   0.0017361
        k(  410) = (   0.1875000   0.1082532   0.0000000), wk =   0.0017361
        k(  411) = (   0.1875000   0.1323094   0.0000000), wk =   0.0017361
        k(  412) = (   0.1875000   0.1563657   0.0000000), wk =   0.0017361
        k(  413) = (   0.1875000   0.1804220   0.0000000), wk =   0.0017361
        k(  414) = (   0.1875000   0.2044782   0.0000000), wk =   0.0017361
        k(  415) = (   0.1875000   0.2285345   0.0000000), wk =   0.0017361
        k(  416) = (   0.1875000   0.2525907   0.0000000), wk =   0.0017361
        k(  417) = (   0.1875000   0.2766470   0.0000000), wk =   0.0017361
        k(  418) = (   0.1875000   0.3007033   0.0000000), wk =   0.0017361
        k(  419) = (   0.1875000   0.3247595   0.0000000), wk =   0.0017361
        k(  420) = (   0.1875000   0.3488158   0.0000000), wk =   0.0017361
        k(  421) = (   0.1875000   0.3728720   0.0000000), wk =   0.0017361
        k(  422) = (   0.1875000   0.3969283   0.0000000), wk =   0.0017361
        k(  423) = (   0.1875000   0.4209846   0.0000000), wk =   0.0017361
        k(  424) = (   0.1875000   0.4450408   0.0000000), wk =   0.0017361
        k(  425) = (   0.1875000   0.4690971   0.0000000), wk =   0.0017361
        k(  426) = (   0.1875000   0.4931534   0.0000000), wk =   0.0017361
        k(  427) = (   0.1875000   0.5172096   0.0000000), wk =   0.0017361
        k(  428) = (   0.1875000   0.5412659   0.0000000), wk =   0.0017361
        k(  429) = (   0.1875000   0.5653221   0.0000000), wk =   0.0017361
        k(  430) = (   0.1875000   0.5893784   0.0000000), wk =   0.0017361
        k(  431) = (   0.1875000   0.6134347   0.0000000), wk =   0.0017361
        k(  432) = (   0.1875000   0.6374909   0.0000000), wk =   0.0017361
        k(  433) = (   0.1875000   0.6615472   0.0000000), wk =   0.0017361
        k(  434) = (   0.1875000  -0.4690971   0.0000000), wk =   0.0017361
        k(  435) = (   0.1875000  -0.4450408   0.0000000), wk =   0.0017361
        k(  436) = (   0.1875000  -0.4209846   0.0000000), wk =   0.0017361
        k(  437) = (   0.1875000  -0.3969283   0.0000000), wk =   0.0017361
        k(  438) = (   0.1875000  -0.3728720   0.0000000), wk =   0.0017361
        k(  439) = (   0.1875000  -0.3488158   0.0000000), wk =   0.0017361
        k(  440) = (   0.1875000  -0.3247595   0.0000000), wk =   0.0017361
        k(  441) = (   0.1875000  -0.3007033   0.0000000), wk =   0.0017361
        k(  442) = (   0.1875000  -0.2766470   0.0000000), wk =   0.0017361
        k(  443) = (   0.1875000  -0.2525907   0.0000000), wk =   0.0017361
        k(  444) = (   0.1875000  -0.2285345   0.0000000), wk =   0.0017361
        k(  445) = (   0.1875000  -0.2044782   0.0000000), wk =   0.0017361
        k(  446) = (   0.1875000  -0.1804220   0.0000000), wk =   0.0017361
        k(  447) = (   0.1875000  -0.1563657   0.0000000), wk =   0.0017361
        k(  448) = (   0.1875000  -0.1323094   0.0000000), wk =   0.0017361
        k(  449) = (   0.1875000  -0.1082532   0.0000000), wk =   0.0017361
        k(  450) = (   0.1875000  -0.0841969   0.0000000), wk =   0.0017361
        k(  451) = (   0.1875000  -0.0601407   0.0000000), wk =   0.0017361
        k(  452) = (   0.1875000  -0.0360844   0.0000000), wk =   0.0017361
        k(  453) = (   0.1875000  -0.0120281   0.0000000), wk =   0.0017361
        k(  454) = (   0.1875000   0.0120281   0.0000000), wk =   0.0017361
        k(  455) = (   0.1875000   0.0360844   0.0000000), wk =   0.0017361
        k(  456) = (   0.1875000   0.0601407   0.0000000), wk =   0.0017361
        k(  457) = (   0.1875000   0.0841969   0.0000000), wk =   0.0017361
        k(  458) = (   0.2083333   0.1202813   0.0000000), wk =   0.0017361
        k(  459) = (   0.2083333   0.1443376   0.0000000), wk =   0.0017361
        k(  460) = (   0.2083333   0.1683938   0.0000000), wk =   0.0017361
        k(  461) = (   0.2083333   0.1924501   0.0000000), wk =   0.0017361
        k(  462) = (   0.2083333   0.2165064   0.0000000), wk =   0.0017361
        k(  463) = (   0.2083333   0.2405626   0.0000000), wk =   0.0017361
        k(  464) = (   0.2083333   0.2646189   0.0000000), wk =   0.0017361
        k(  465) = (   0.2083333   0.2886751   0.0000000), wk =   0.0017361
        k(  466) = (   0.2083333   0.3127314   0.0000000), wk =   0.0017361
        k(  467) = (   0.2083333   0.3367877   0.0000000), wk =   0.0017361
        k(  468) = (   0.2083333   0.3608439   0.0000000), wk =   0.0017361
        k(  469) = (   0.2083333   0.3849002   0.0000000), wk =   0.0017361
        k(  470) = (   0.2083333   0.4089564   0.0000000), wk =   0.0017361
        k(  471) = (   0.2083333   0.4330127   0.0000000), wk =   0.0017361
        k(  472) = (   0.2083333   0.4570690   0.0000000), wk =   0.0017361
        k(  473) = (   0.2083333   0.4811252   0.0000000), wk =   0.0017361
        k(  474) = (   0.2083333   0.5051815   0.0000000), wk =   0.0017361
        k(  475) = (   0.2083333   0.5292377   0.0000000), wk =   0.0017361
        k(  476) = (   0.2083333   0.5532940   0.0000000), wk =   0.0017361
        k(  477) = (   0.2083333   0.5773503   0.0000000), wk =   0.0017361
        k(  478) = (   0.2083333   0.6014065   0.0000000), wk =   0.0017361
        k(  479) = (   0.2083333   0.6254628   0.0000000), wk =   0.0017361
        k(  480) = (   0.2083333   0.6495191   0.0000000), wk =   0.0017361
        k(  481) = (   0.2083333   0.6735753   0.0000000), wk =   0.0017361
        k(  482) = (   0.2083333  -0.4570690   0.0000000), wk =   0.0017361
        k(  483) = (   0.2083333  -0.4330127   0.0000000), wk =   0.0017361
        k(  484) = (   0.2083333  -0.4089564   0.0000000), wk =   0.0017361
        k(  485) = (   0.2083333  -0.3849002   0.0000000), wk =   0.0017361
        k(  486) = (   0.2083333  -0.3608439   0.0000000), wk =   0.0017361
        k(  487) = (   0.2083333  -0.3367877   0.0000000), wk =   0.0017361
        k(  488) = (   0.2083333  -0.3127314   0.0000000), wk =   0.0017361
        k(  489) = (   0.2083333  -0.2886751   0.0000000), wk =   0.0017361
        k(  490) = (   0.2083333  -0.2646189   0.0000000), wk =   0.0017361
        k(  491) = (   0.2083333  -0.2405626   0.0000000), wk =   0.0017361
        k(  492) = (   0.2083333  -0.2165064   0.0000000), wk =   0.0017361
        k(  493) = (   0.2083333  -0.1924501   0.0000000), wk =   0.0017361
        k(  494) = (   0.2083333  -0.1683938   0.0000000), wk =   0.0017361
        k(  495) = (   0.2083333  -0.1443376   0.0000000), wk =   0.0017361
        k(  496) = (   0.2083333  -0.1202813   0.0000000), wk =   0.0017361
        k(  497) = (   0.2083333  -0.0962250   0.0000000), wk =   0.0017361
        k(  498) = (   0.2083333  -0.0721688   0.0000000), wk =   0.0017361
        k(  499) = (   0.2083333  -0.0481125   0.0000000), wk =   0.0017361
        k(  500) = (   0.2083333  -0.0240563   0.0000000), wk =   0.0017361
        k(  501) = (   0.2083333   0.0000000   0.0000000), wk =   0.0017361
        k(  502) = (   0.2083333   0.0240563   0.0000000), wk =   0.0017361
        k(  503) = (   0.2083333   0.0481125   0.0000000), wk =   0.0017361
        k(  504) = (   0.2083333   0.0721688   0.0000000), wk =   0.0017361
        k(  505) = (   0.2083333   0.0962250   0.0000000), wk =   0.0017361
        k(  506) = (   0.2291667   0.1323094   0.0000000), wk =   0.0017361
        k(  507) = (   0.2291667   0.1563657   0.0000000), wk =   0.0017361
        k(  508) = (   0.2291667   0.1804220   0.0000000), wk =   0.0017361
        k(  509) = (   0.2291667   0.2044782   0.0000000), wk =   0.0017361
        k(  510) = (   0.2291667   0.2285345   0.0000000), wk =   0.0017361
        k(  511) = (   0.2291667   0.2525907   0.0000000), wk =   0.0017361
        k(  512) = (   0.2291667   0.2766470   0.0000000), wk =   0.0017361
        k(  513) = (   0.2291667   0.3007033   0.0000000), wk =   0.0017361
        k(  514) = (   0.2291667   0.3247595   0.0000000), wk =   0.0017361
        k(  515) = (   0.2291667   0.3488158   0.0000000), wk =   0.0017361
        k(  516) = (   0.2291667   0.3728720   0.0000000), wk =   0.0017361
        k(  517) = (   0.2291667   0.3969283   0.0000000), wk =   0.0017361
        k(  518) = (   0.2291667   0.4209846   0.0000000), wk =   0.0017361
        k(  519) = (   0.2291667   0.4450408   0.0000000), wk =   0.0017361
        k(  520) = (   0.2291667   0.4690971   0.0000000), wk =   0.0017361
        k(  521) = (   0.2291667   0.4931534   0.0000000), wk =   0.0017361
        k(  522) = (   0.2291667   0.5172096   0.0000000), wk =   0.0017361
        k(  523) = (   0.2291667   0.5412659   0.0000000), wk =   0.0017361
        k(  524) = (   0.2291667   0.5653221   0.0000000), wk =   0.0017361
        k(  525) = (   0.2291667   0.5893784   0.0000000), wk =   0.0017361
        k(  526) = (   0.2291667   0.6134347   0.0000000), wk =   0.0017361
        k(  527) = (   0.2291667   0.6374909   0.0000000), wk =   0.0017361
        k(  528) = (   0.2291667   0.6615472   0.0000000), wk =   0.0017361
        k(  529) = (   0.2291667   0.6856034   0.0000000), wk =   0.0017361
        k(  530) = (   0.2291667  -0.4450408   0.0000000), wk =   0.0017361
        k(  531) = (   0.2291667  -0.4209846   0.0000000), wk =   0.0017361
        k(  532) = (   0.2291667  -0.3969283   0.0000000), wk =   0.0017361
        k(  533) = (   0.2291667  -0.3728720   0.0000000), wk =   0.0017361
        k(  534) = (   0.2291667  -0.3488158   0.0000000), wk =   0.0017361
        k(  535) = (   0.2291667  -0.3247595   0.0000000), wk =   0.0017361
        k(  536) = (   0.2291667  -0.3007033   0.0000000), wk =   0.0017361
        k(  537) = (   0.2291667  -0.2766470   0.0000000), wk =   0.0017361
        k(  538) = (   0.2291667  -0.2525907   0.0000000), wk =   0.0017361
        k(  539) = (   0.2291667  -0.2285345   0.0000000), wk =   0.0017361
        k(  540) = (   0.2291667  -0.2044782   0.0000000), wk =   0.0017361
        k(  541) = (   0.2291667  -0.1804220   0.0000000), wk =   0.0017361
        k(  542) = (   0.2291667  -0.1563657   0.0000000), wk =   0.0017361
        k(  543) = (   0.2291667  -0.1323094   0.0000000), wk =   0.0017361
        k(  544) = (   0.2291667  -0.1082532   0.0000000), wk =   0.0017361
        k(  545) = (   0.2291667  -0.0841969   0.0000000), wk =   0.0017361
        k(  546) = (   0.2291667  -0.0601407   0.0000000), wk =   0.0017361
        k(  547) = (   0.2291667  -0.0360844   0.0000000), wk =   0.0017361
        k(  548) = (   0.2291667  -0.0120281   0.0000000), wk =   0.0017361
        k(  549) = (   0.2291667   0.0120281   0.0000000), wk =   0.0017361
        k(  550) = (   0.2291667   0.0360844   0.0000000), wk =   0.0017361
        k(  551) = (   0.2291667   0.0601407   0.0000000), wk =   0.0017361
        k(  552) = (   0.2291667   0.0841969   0.0000000), wk =   0.0017361
        k(  553) = (   0.2291667   0.1082532   0.0000000), wk =   0.0017361
        k(  554) = (   0.2500000   0.1443376   0.0000000), wk =   0.0017361
        k(  555) = (   0.2500000   0.1683938   0.0000000), wk =   0.0017361
        k(  556) = (   0.2500000   0.1924501   0.0000000), wk =   0.0017361
        k(  557) = (   0.2500000   0.2165064   0.0000000), wk =   0.0017361
        k(  558) = (   0.2500000   0.2405626   0.0000000), wk =   0.0017361
        k(  559) = (   0.2500000   0.2646189   0.0000000), wk =   0.0017361
        k(  560) = (   0.2500000   0.2886751   0.0000000), wk =   0.0017361
        k(  561) = (   0.2500000   0.3127314   0.0000000), wk =   0.0017361
        k(  562) = (   0.2500000   0.3367877   0.0000000), wk =   0.0017361
        k(  563) = (   0.2500000   0.3608439   0.0000000), wk =   0.0017361
        k(  564) = (   0.2500000   0.3849002   0.0000000), wk =   0.0017361
        k(  565) = (   0.2500000   0.4089564   0.0000000), wk =   0.0017361
        k(  566) = (   0.2500000   0.4330127   0.0000000), wk =   0.0017361
        k(  567) = (   0.2500000   0.4570690   0.0000000), wk =   0.0017361
        k(  568) = (   0.2500000   0.4811252   0.0000000), wk =   0.0017361
        k(  569) = (   0.2500000   0.5051815   0.0000000), wk =   0.0017361
        k(  570) = (   0.2500000   0.5292377   0.0000000), wk =   0.0017361
        k(  571) = (   0.2500000   0.5532940   0.0000000), wk =   0.0017361
        k(  572) = (   0.2500000   0.5773503   0.0000000), wk =   0.0017361
        k(  573) = (   0.2500000   0.6014065   0.0000000), wk =   0.0017361
        k(  574) = (   0.2500000   0.6254628   0.0000000), wk =   0.0017361
        k(  575) = (   0.2500000   0.6495191   0.0000000), wk =   0.0017361
        k(  576) = (   0.2500000   0.6735753   0.0000000), wk =   0.0017361
        k(  577) = (   0.2500000   0.6976316   0.0000000), wk =   0.0017361
        k(  578) = (   0.2500000  -0.4330127   0.0000000), wk =   0.0017361
        k(  579) = (   0.2500000  -0.4089564   0.0000000), wk =   0.0017361
        k(  580) = (   0.2500000  -0.3849002   0.0000000), wk =   0.0017361
        k(  581) = (   0.2500000  -0.3608439   0.0000000), wk =   0.0017361
        k(  582) = (   0.2500000  -0.3367877   0.0000000), wk =   0.0017361
        k(  583) = (   0.2500000  -0.3127314   0.0000000), wk =   0.0017361
        k(  584) = (   0.2500000  -0.2886751   0.0000000), wk =   0.0017361
        k(  585) = (   0.2500000  -0.2646189   0.0000000), wk =   0.0017361
        k(  586) = (   0.2500000  -0.2405626   0.0000000), wk =   0.0017361
        k(  587) = (   0.2500000  -0.2165064   0.0000000), wk =   0.0017361
        k(  588) = (   0.2500000  -0.1924501   0.0000000), wk =   0.0017361
        k(  589) = (   0.2500000  -0.1683938   0.0000000), wk =   0.0017361
        k(  590) = (   0.2500000  -0.1443376   0.0000000), wk =   0.0017361
        k(  591) = (   0.2500000  -0.1202813   0.0000000), wk =   0.0017361
        k(  592) = (   0.2500000  -0.0962250   0.0000000), wk =   0.0017361
        k(  593) = (   0.2500000  -0.0721688   0.0000000), wk =   0.0017361
        k(  594) = (   0.2500000  -0.0481125   0.0000000), wk =   0.0017361
        k(  595) = (   0.2500000  -0.0240563   0.0000000), wk =   0.0017361
        k(  596) = (   0.2500000   0.0000000   0.0000000), wk =   0.0017361
        k(  597) = (   0.2500000   0.0240563   0.0000000), wk =   0.0017361
        k(  598) = (   0.2500000   0.0481125   0.0000000), wk =   0.0017361
        k(  599) = (   0.2500000   0.0721688   0.0000000), wk =   0.0017361
        k(  600) = (   0.2500000   0.0962250   0.0000000), wk =   0.0017361
        k(  601) = (   0.2500000   0.1202813   0.0000000), wk =   0.0017361
        k(  602) = (   0.2708333   0.1563657   0.0000000), wk =   0.0017361
        k(  603) = (   0.2708333   0.1804220   0.0000000), wk =   0.0017361
        k(  604) = (   0.2708333   0.2044782   0.0000000), wk =   0.0017361
        k(  605) = (   0.2708333   0.2285345   0.0000000), wk =   0.0017361
        k(  606) = (   0.2708333   0.2525907   0.0000000), wk =   0.0017361
        k(  607) = (   0.2708333   0.2766470   0.0000000), wk =   0.0017361
        k(  608) = (   0.2708333   0.3007033   0.0000000), wk =   0.0017361
        k(  609) = (   0.2708333   0.3247595   0.0000000), wk =   0.0017361
        k(  610) = (   0.2708333   0.3488158   0.0000000), wk =   0.0017361
        k(  611) = (   0.2708333   0.3728720   0.0000000), wk =   0.0017361
        k(  612) = (   0.2708333   0.3969283   0.0000000), wk =   0.0017361
        k(  613) = (   0.2708333   0.4209846   0.0000000), wk =   0.0017361
        k(  614) = (   0.2708333   0.4450408   0.0000000), wk =   0.0017361
        k(  615) = (   0.2708333   0.4690971   0.0000000), wk =   0.0017361
        k(  616) = (   0.2708333   0.4931534   0.0000000), wk =   0.0017361
        k(  617) = (   0.2708333   0.5172096   0.0000000), wk =   0.0017361
        k(  618) = (   0.2708333   0.5412659   0.0000000), wk =   0.0017361
        k(  619) = (   0.2708333   0.5653221   0.0000000), wk =   0.0017361
        k(  620) = (   0.2708333   0.5893784   0.0000000), wk =   0.0017361
        k(  621) = (   0.2708333   0.6134347   0.0000000), wk =   0.0017361
        k(  622) = (   0.2708333   0.6374909   0.0000000), wk =   0.0017361
        k(  623) = (   0.2708333   0.6615472   0.0000000), wk =   0.0017361
        k(  624) = (   0.2708333   0.6856034   0.0000000), wk =   0.0017361
        k(  625) = (   0.2708333   0.7096597   0.0000000), wk =   0.0017361
        k(  626) = (   0.2708333  -0.4209846   0.0000000), wk =   0.0017361
        k(  627) = (   0.2708333  -0.3969283   0.0000000), wk =   0.0017361
        k(  628) = (   0.2708333  -0.3728720   0.0000000), wk =   0.0017361
        k(  629) = (   0.2708333  -0.3488158   0.0000000), wk =   0.0017361
        k(  630) = (   0.2708333  -0.3247595   0.0000000), wk =   0.0017361
        k(  631) = (   0.2708333  -0.3007033   0.0000000), wk =   0.0017361
        k(  632) = (   0.2708333  -0.2766470   0.0000000), wk =   0.0017361
        k(  633) = (   0.2708333  -0.2525907   0.0000000), wk =   0.0017361
        k(  634) = (   0.2708333  -0.2285345   0.0000000), wk =   0.0017361
        k(  635) = (   0.2708333  -0.2044782   0.0000000), wk =   0.0017361
        k(  636) = (   0.2708333  -0.1804220   0.0000000), wk =   0.0017361
        k(  637) = (   0.2708333  -0.1563657   0.0000000), wk =   0.0017361
        k(  638) = (   0.2708333  -0.1323094   0.0000000), wk =   0.0017361
        k(  639) = (   0.2708333  -0.1082532   0.0000000), wk =   0.0017361
        k(  640) = (   0.2708333  -0.0841969   0.0000000), wk =   0.0017361
        k(  641) = (   0.2708333  -0.0601407   0.0000000), wk =   0.0017361
        k(  642) = (   0.2708333  -0.0360844   0.0000000), wk =   0.0017361
        k(  643) = (   0.2708333  -0.0120281   0.0000000), wk =   0.0017361
        k(  644) = (   0.2708333   0.0120281   0.0000000), wk =   0.0017361
        k(  645) = (   0.2708333   0.0360844   0.0000000), wk =   0.0017361
        k(  646) = (   0.2708333   0.0601407   0.0000000), wk =   0.0017361
        k(  647) = (   0.2708333   0.0841969   0.0000000), wk =   0.0017361
        k(  648) = (   0.2708333   0.1082532   0.0000000), wk =   0.0017361
        k(  649) = (   0.2708333   0.1323094   0.0000000), wk =   0.0017361
        k(  650) = (   0.2916667   0.1683938   0.0000000), wk =   0.0017361
        k(  651) = (   0.2916667   0.1924501   0.0000000), wk =   0.0017361
        k(  652) = (   0.2916667   0.2165064   0.0000000), wk =   0.0017361
        k(  653) = (   0.2916667   0.2405626   0.0000000), wk =   0.0017361
        k(  654) = (   0.2916667   0.2646189   0.0000000), wk =   0.0017361
        k(  655) = (   0.2916667   0.2886751   0.0000000), wk =   0.0017361
        k(  656) = (   0.2916667   0.3127314   0.0000000), wk =   0.0017361
        k(  657) = (   0.2916667   0.3367877   0.0000000), wk =   0.0017361
        k(  658) = (   0.2916667   0.3608439   0.0000000), wk =   0.0017361
        k(  659) = (   0.2916667   0.3849002   0.0000000), wk =   0.0017361
        k(  660) = (   0.2916667   0.4089564   0.0000000), wk =   0.0017361
        k(  661) = (   0.2916667   0.4330127   0.0000000), wk =   0.0017361
        k(  662) = (   0.2916667   0.4570690   0.0000000), wk =   0.0017361
        k(  663) = (   0.2916667   0.4811252   0.0000000), wk =   0.0017361
        k(  664) = (   0.2916667   0.5051815   0.0000000), wk =   0.0017361
        k(  665) = (   0.2916667   0.5292377   0.0000000), wk =   0.0017361
        k(  666) = (   0.2916667   0.5532940   0.0000000), wk =   0.0017361
        k(  667) = (   0.2916667   0.5773503   0.0000000), wk =   0.0017361
        k(  668) = (   0.2916667   0.6014065   0.0000000), wk =   0.0017361
        k(  669) = (   0.2916667   0.6254628   0.0000000), wk =   0.0017361
        k(  670) = (   0.2916667   0.6495191   0.0000000), wk =   0.0017361
        k(  671) = (   0.2916667   0.6735753   0.0000000), wk =   0.0017361
        k(  672) = (   0.2916667   0.6976316   0.0000000), wk =   0.0017361
        k(  673) = (   0.2916667   0.7216878   0.0000000), wk =   0.0017361
        k(  674) = (   0.2916667  -0.4089564   0.0000000), wk =   0.0017361
        k(  675) = (   0.2916667  -0.3849002   0.0000000), wk =   0.0017361
        k(  676) = (   0.2916667  -0.3608439   0.0000000), wk =   0.0017361
        k(  677) = (   0.2916667  -0.3367877   0.0000000), wk =   0.0017361
        k(  678) = (   0.2916667  -0.3127314   0.0000000), wk =   0.0017361
        k(  679) = (   0.2916667  -0.2886751   0.0000000), wk =   0.0017361
        k(  680) = (   0.2916667  -0.2646189   0.0000000), wk =   0.0017361
        k(  681) = (   0.2916667  -0.2405626   0.0000000), wk =   0.0017361
        k(  682) = (   0.2916667  -0.2165064   0.0000000), wk =   0.0017361
        k(  683) = (   0.2916667  -0.1924501   0.0000000), wk =   0.0017361
        k(  684) = (   0.2916667  -0.1683938   0.0000000), wk =   0.0017361
        k(  685) = (   0.2916667  -0.1443376   0.0000000), wk =   0.0017361
        k(  686) = (   0.2916667  -0.1202813   0.0000000), wk =   0.0017361
        k(  687) = (   0.2916667  -0.0962250   0.0000000), wk =   0.0017361
        k(  688) = (   0.2916667  -0.0721688   0.0000000), wk =   0.0017361
        k(  689) = (   0.2916667  -0.0481125   0.0000000), wk =   0.0017361
        k(  690) = (   0.2916667  -0.0240563   0.0000000), wk =   0.0017361
        k(  691) = (   0.2916667  -0.0000000   0.0000000), wk =   0.0017361
        k(  692) = (   0.2916667   0.0240563   0.0000000), wk =   0.0017361
        k(  693) = (   0.2916667   0.0481125   0.0000000), wk =   0.0017361
        k(  694) = (   0.2916667   0.0721688   0.0000000), wk =   0.0017361
        k(  695) = (   0.2916667   0.0962250   0.0000000), wk =   0.0017361
        k(  696) = (   0.2916667   0.1202813   0.0000000), wk =   0.0017361
        k(  697) = (   0.2916667   0.1443376   0.0000000), wk =   0.0017361
        k(  698) = (   0.3125000   0.1804220   0.0000000), wk =   0.0017361
        k(  699) = (   0.3125000   0.2044782   0.0000000), wk =   0.0017361
        k(  700) = (   0.3125000   0.2285345   0.0000000), wk =   0.0017361
        k(  701) = (   0.3125000   0.2525907   0.0000000), wk =   0.0017361
        k(  702) = (   0.3125000   0.2766470   0.0000000), wk =   0.0017361
        k(  703) = (   0.3125000   0.3007033   0.0000000), wk =   0.0017361
        k(  704) = (   0.3125000   0.3247595   0.0000000), wk =   0.0017361
        k(  705) = (   0.3125000   0.3488158   0.0000000), wk =   0.0017361
        k(  706) = (   0.3125000   0.3728720   0.0000000), wk =   0.0017361
        k(  707) = (   0.3125000   0.3969283   0.0000000), wk =   0.0017361
        k(  708) = (   0.3125000   0.4209846   0.0000000), wk =   0.0017361
        k(  709) = (   0.3125000   0.4450408   0.0000000), wk =   0.0017361
        k(  710) = (   0.3125000   0.4690971   0.0000000), wk =   0.0017361
        k(  711) = (   0.3125000   0.4931534   0.0000000), wk =   0.0017361
        k(  712) = (   0.3125000   0.5172096   0.0000000), wk =   0.0017361
        k(  713) = (   0.3125000   0.5412659   0.0000000), wk =   0.0017361
        k(  714) = (   0.3125000   0.5653221   0.0000000), wk =   0.0017361
        k(  715) = (   0.3125000   0.5893784   0.0000000), wk =   0.0017361
        k(  716) = (   0.3125000   0.6134347   0.0000000), wk =   0.0017361
        k(  717) = (   0.3125000   0.6374909   0.0000000), wk =   0.0017361
        k(  718) = (   0.3125000   0.6615472   0.0000000), wk =   0.0017361
        k(  719) = (   0.3125000   0.6856034   0.0000000), wk =   0.0017361
        k(  720) = (   0.3125000   0.7096597   0.0000000), wk =   0.0017361
        k(  721) = (   0.3125000   0.7337160   0.0000000), wk =   0.0017361
        k(  722) = (   0.3125000  -0.3969283   0.0000000), wk =   0.0017361
        k(  723) = (   0.3125000  -0.3728720   0.0000000), wk =   0.0017361
        k(  724) = (   0.3125000  -0.3488158   0.0000000), wk =   0.0017361
        k(  725) = (   0.3125000  -0.3247595   0.0000000), wk =   0.0017361
        k(  726) = (   0.3125000  -0.3007033   0.0000000), wk =   0.0017361
        k(  727) = (   0.3125000  -0.2766470   0.0000000), wk =   0.0017361
        k(  728) = (   0.3125000  -0.2525907   0.0000000), wk =   0.0017361
        k(  729) = (   0.3125000  -0.2285345   0.0000000), wk =   0.0017361
        k(  730) = (   0.3125000  -0.2044782   0.0000000), wk =   0.0017361
        k(  731) = (   0.3125000  -0.1804220   0.0000000), wk =   0.0017361
        k(  732) = (   0.3125000  -0.1563657   0.0000000), wk =   0.0017361
        k(  733) = (   0.3125000  -0.1323094   0.0000000), wk =   0.0017361
        k(  734) = (   0.3125000  -0.1082532   0.0000000), wk =   0.0017361
        k(  735) = (   0.3125000  -0.0841969   0.0000000), wk =   0.0017361
        k(  736) = (   0.3125000  -0.0601407   0.0000000), wk =   0.0017361
        k(  737) = (   0.3125000  -0.0360844   0.0000000), wk =   0.0017361
        k(  738) = (   0.3125000  -0.0120281   0.0000000), wk =   0.0017361
        k(  739) = (   0.3125000   0.0120281   0.0000000), wk =   0.0017361
        k(  740) = (   0.3125000   0.0360844   0.0000000), wk =   0.0017361
        k(  741) = (   0.3125000   0.0601407   0.0000000), wk =   0.0017361
        k(  742) = (   0.3125000   0.0841969   0.0000000), wk =   0.0017361
        k(  743) = (   0.3125000   0.1082532   0.0000000), wk =   0.0017361
        k(  744) = (   0.3125000   0.1323094   0.0000000), wk =   0.0017361
        k(  745) = (   0.3125000   0.1563657   0.0000000), wk =   0.0017361
        k(  746) = (   0.3333333   0.1924501   0.0000000), wk =   0.0017361
        k(  747) = (   0.3333333   0.2165064   0.0000000), wk =   0.0017361
        k(  748) = (   0.3333333   0.2405626   0.0000000), wk =   0.0017361
        k(  749) = (   0.3333333   0.2646189   0.0000000), wk =   0.0017361
        k(  750) = (   0.3333333   0.2886751   0.0000000), wk =   0.0017361
        k(  751) = (   0.3333333   0.3127314   0.0000000), wk =   0.0017361
        k(  752) = (   0.3333333   0.3367877   0.0000000), wk =   0.0017361
        k(  753) = (   0.3333333   0.3608439   0.0000000), wk =   0.0017361
        k(  754) = (   0.3333333   0.3849002   0.0000000), wk =   0.0017361
        k(  755) = (   0.3333333   0.4089564   0.0000000), wk =   0.0017361
        k(  756) = (   0.3333333   0.4330127   0.0000000), wk =   0.0017361
        k(  757) = (   0.3333333   0.4570690   0.0000000), wk =   0.0017361
        k(  758) = (   0.3333333   0.4811252   0.0000000), wk =   0.0017361
        k(  759) = (   0.3333333   0.5051815   0.0000000), wk =   0.0017361
        k(  760) = (   0.3333333   0.5292377   0.0000000), wk =   0.0017361
        k(  761) = (   0.3333333   0.5532940   0.0000000), wk =   0.0017361
        k(  762) = (   0.3333333   0.5773503   0.0000000), wk =   0.0017361
        k(  763) = (   0.3333333   0.6014065   0.0000000), wk =   0.0017361
        k(  764) = (   0.3333333   0.6254628   0.0000000), wk =   0.0017361
        k(  765) = (   0.3333333   0.6495191   0.0000000), wk =   0.0017361
        k(  766) = (   0.3333333   0.6735753   0.0000000), wk =   0.0017361
        k(  767) = (   0.3333333   0.6976316   0.0000000), wk =   0.0017361
        k(  768) = (   0.3333333   0.7216878   0.0000000), wk =   0.0017361
        k(  769) = (   0.3333333   0.7457441   0.0000000), wk =   0.0017361
        k(  770) = (   0.3333333  -0.3849002   0.0000000), wk =   0.0017361
        k(  771) = (   0.3333333  -0.3608439   0.0000000), wk =   0.0017361
        k(  772) = (   0.3333333  -0.3367877   0.0000000), wk =   0.0017361
        k(  773) = (   0.3333333  -0.3127314   0.0000000), wk =   0.0017361
        k(  774) = (   0.3333333  -0.2886751   0.0000000), wk =   0.0017361
        k(  775) = (   0.3333333  -0.2646189   0.0000000), wk =   0.0017361
        k(  776) = (   0.3333333  -0.2405626   0.0000000), wk =   0.0017361
        k(  777) = (   0.3333333  -0.2165064   0.0000000), wk =   0.0017361
        k(  778) = (   0.3333333  -0.1924501   0.0000000), wk =   0.0017361
        k(  779) = (   0.3333333  -0.1683938   0.0000000), wk =   0.0017361
        k(  780) = (   0.3333333  -0.1443376   0.0000000), wk =   0.0017361
        k(  781) = (   0.3333333  -0.1202813   0.0000000), wk =   0.0017361
        k(  782) = (   0.3333333  -0.0962250   0.0000000), wk =   0.0017361
        k(  783) = (   0.3333333  -0.0721688   0.0000000), wk =   0.0017361
        k(  784) = (   0.3333333  -0.0481125   0.0000000), wk =   0.0017361
        k(  785) = (   0.3333333  -0.0240563   0.0000000), wk =   0.0017361
        k(  786) = (   0.3333333   0.0000000   0.0000000), wk =   0.0017361
        k(  787) = (   0.3333333   0.0240563   0.0000000), wk =   0.0017361
        k(  788) = (   0.3333333   0.0481125   0.0000000), wk =   0.0017361
        k(  789) = (   0.3333333   0.0721688   0.0000000), wk =   0.0017361
        k(  790) = (   0.3333333   0.0962250   0.0000000), wk =   0.0017361
        k(  791) = (   0.3333333   0.1202813   0.0000000), wk =   0.0017361
        k(  792) = (   0.3333333   0.1443376   0.0000000), wk =   0.0017361
        k(  793) = (   0.3333333   0.1683938   0.0000000), wk =   0.0017361
        k(  794) = (   0.3541667   0.2044782   0.0000000), wk =   0.0017361
        k(  795) = (   0.3541667   0.2285345   0.0000000), wk =   0.0017361
        k(  796) = (   0.3541667   0.2525907   0.0000000), wk =   0.0017361
        k(  797) = (   0.3541667   0.2766470   0.0000000), wk =   0.0017361
        k(  798) = (   0.3541667   0.3007033   0.0000000), wk =   0.0017361
        k(  799) = (   0.3541667   0.3247595   0.0000000), wk =   0.0017361
        k(  800) = (   0.3541667   0.3488158   0.0000000), wk =   0.0017361
        k(  801) = (   0.3541667   0.3728720   0.0000000), wk =   0.0017361
        k(  802) = (   0.3541667   0.3969283   0.0000000), wk =   0.0017361
        k(  803) = (   0.3541667   0.4209846   0.0000000), wk =   0.0017361
        k(  804) = (   0.3541667   0.4450408   0.0000000), wk =   0.0017361
        k(  805) = (   0.3541667   0.4690971   0.0000000), wk =   0.0017361
        k(  806) = (   0.3541667   0.4931534   0.0000000), wk =   0.0017361
        k(  807) = (   0.3541667   0.5172096   0.0000000), wk =   0.0017361
        k(  808) = (   0.3541667   0.5412659   0.0000000), wk =   0.0017361
        k(  809) = (   0.3541667   0.5653221   0.0000000), wk =   0.0017361
        k(  810) = (   0.3541667   0.5893784   0.0000000), wk =   0.0017361
        k(  811) = (   0.3541667   0.6134347   0.0000000), wk =   0.0017361
        k(  812) = (   0.3541667   0.6374909   0.0000000), wk =   0.0017361
        k(  813) = (   0.3541667   0.6615472   0.0000000), wk =   0.0017361
        k(  814) = (   0.3541667   0.6856034   0.0000000), wk =   0.0017361
        k(  815) = (   0.3541667   0.7096597   0.0000000), wk =   0.0017361
        k(  816) = (   0.3541667   0.7337160   0.0000000), wk =   0.0017361
        k(  817) = (   0.3541667   0.7577722   0.0000000), wk =   0.0017361
        k(  818) = (   0.3541667  -0.3728720   0.0000000), wk =   0.0017361
        k(  819) = (   0.3541667  -0.3488158   0.0000000), wk =   0.0017361
        k(  820) = (   0.3541667  -0.3247595   0.0000000), wk =   0.0017361
        k(  821) = (   0.3541667  -0.3007033   0.0000000), wk =   0.0017361
        k(  822) = (   0.3541667  -0.2766470   0.0000000), wk =   0.0017361
        k(  823) = (   0.3541667  -0.2525907   0.0000000), wk =   0.0017361
        k(  824) = (   0.3541667  -0.2285345   0.0000000), wk =   0.0017361
        k(  825) = (   0.3541667  -0.2044782   0.0000000), wk =   0.0017361
        k(  826) = (   0.3541667  -0.1804220   0.0000000), wk =   0.0017361
        k(  827) = (   0.3541667  -0.1563657   0.0000000), wk =   0.0017361
        k(  828) = (   0.3541667  -0.1323094   0.0000000), wk =   0.0017361
        k(  829) = (   0.3541667  -0.1082532   0.0000000), wk =   0.0017361
        k(  830) = (   0.3541667  -0.0841969   0.0000000), wk =   0.0017361
        k(  831) = (   0.3541667  -0.0601407   0.0000000), wk =   0.0017361
        k(  832) = (   0.3541667  -0.0360844   0.0000000), wk =   0.0017361
        k(  833) = (   0.3541667  -0.0120281   0.0000000), wk =   0.0017361
        k(  834) = (   0.3541667   0.0120281   0.0000000), wk =   0.0017361
        k(  835) = (   0.3541667   0.0360844   0.0000000), wk =   0.0017361
        k(  836) = (   0.3541667   0.0601407   0.0000000), wk =   0.0017361
        k(  837) = (   0.3541667   0.0841969   0.0000000), wk =   0.0017361
        k(  838) = (   0.3541667   0.1082532   0.0000000), wk =   0.0017361
        k(  839) = (   0.3541667   0.1323094   0.0000000), wk =   0.0017361
        k(  840) = (   0.3541667   0.1563657   0.0000000), wk =   0.0017361
        k(  841) = (   0.3541667   0.1804220   0.0000000), wk =   0.0017361
        k(  842) = (   0.3750000   0.2165064   0.0000000), wk =   0.0017361
        k(  843) = (   0.3750000   0.2405626   0.0000000), wk =   0.0017361
        k(  844) = (   0.3750000   0.2646189   0.0000000), wk =   0.0017361
        k(  845) = (   0.3750000   0.2886751   0.0000000), wk =   0.0017361
        k(  846) = (   0.3750000   0.3127314   0.0000000), wk =   0.0017361
        k(  847) = (   0.3750000   0.3367877   0.0000000), wk =   0.0017361
        k(  848) = (   0.3750000   0.3608439   0.0000000), wk =   0.0017361
        k(  849) = (   0.3750000   0.3849002   0.0000000), wk =   0.0017361
        k(  850) = (   0.3750000   0.4089564   0.0000000), wk =   0.0017361
        k(  851) = (   0.3750000   0.4330127   0.0000000), wk =   0.0017361
        k(  852) = (   0.3750000   0.4570690   0.0000000), wk =   0.0017361
        k(  853) = (   0.3750000   0.4811252   0.0000000), wk =   0.0017361
        k(  854) = (   0.3750000   0.5051815   0.0000000), wk =   0.0017361
        k(  855) = (   0.3750000   0.5292377   0.0000000), wk =   0.0017361
        k(  856) = (   0.3750000   0.5532940   0.0000000), wk =   0.0017361
        k(  857) = (   0.3750000   0.5773503   0.0000000), wk =   0.0017361
        k(  858) = (   0.3750000   0.6014065   0.0000000), wk =   0.0017361
        k(  859) = (   0.3750000   0.6254628   0.0000000), wk =   0.0017361
        k(  860) = (   0.3750000   0.6495191   0.0000000), wk =   0.0017361
        k(  861) = (   0.3750000   0.6735753   0.0000000), wk =   0.0017361
        k(  862) = (   0.3750000   0.6976316   0.0000000), wk =   0.0017361
        k(  863) = (   0.3750000   0.7216878   0.0000000), wk =   0.0017361
        k(  864) = (   0.3750000   0.7457441   0.0000000), wk =   0.0017361
        k(  865) = (   0.3750000   0.7698004   0.0000000), wk =   0.0017361
        k(  866) = (   0.3750000  -0.3608439   0.0000000), wk =   0.0017361
        k(  867) = (   0.3750000  -0.3367877   0.0000000), wk =   0.0017361
        k(  868) = (   0.3750000  -0.3127314   0.0000000), wk =   0.0017361
        k(  869) = (   0.3750000  -0.2886751   0.0000000), wk =   0.0017361
        k(  870) = (   0.3750000  -0.2646189   0.0000000), wk =   0.0017361
        k(  871) = (   0.3750000  -0.2405626   0.0000000), wk =   0.0017361
        k(  872) = (   0.3750000  -0.2165064   0.0000000), wk =   0.0017361
        k(  873) = (   0.3750000  -0.1924501   0.0000000), wk =   0.0017361
        k(  874) = (   0.3750000  -0.1683938   0.0000000), wk =   0.0017361
        k(  875) = (   0.3750000  -0.1443376   0.0000000), wk =   0.0017361
        k(  876) = (   0.3750000  -0.1202813   0.0000000), wk =   0.0017361
        k(  877) = (   0.3750000  -0.0962250   0.0000000), wk =   0.0017361
        k(  878) = (   0.3750000  -0.0721688   0.0000000), wk =   0.0017361
        k(  879) = (   0.3750000  -0.0481125   0.0000000), wk =   0.0017361
        k(  880) = (   0.3750000  -0.0240563   0.0000000), wk =   0.0017361
        k(  881) = (   0.3750000   0.0000000   0.0000000), wk =   0.0017361
        k(  882) = (   0.3750000   0.0240563   0.0000000), wk =   0.0017361
        k(  883) = (   0.3750000   0.0481125   0.0000000), wk =   0.0017361
        k(  884) = (   0.3750000   0.0721688   0.0000000), wk =   0.0017361
        k(  885) = (   0.3750000   0.0962250   0.0000000), wk =   0.0017361
        k(  886) = (   0.3750000   0.1202813   0.0000000), wk =   0.0017361
        k(  887) = (   0.3750000   0.1443376   0.0000000), wk =   0.0017361
        k(  888) = (   0.3750000   0.1683938   0.0000000), wk =   0.0017361
        k(  889) = (   0.3750000   0.1924501   0.0000000), wk =   0.0017361
        k(  890) = (   0.3958333   0.2285345   0.0000000), wk =   0.0017361
        k(  891) = (   0.3958333   0.2525907   0.0000000), wk =   0.0017361
        k(  892) = (   0.3958333   0.2766470   0.0000000), wk =   0.0017361
        k(  893) = (   0.3958333   0.3007033   0.0000000), wk =   0.0017361
        k(  894) = (   0.3958333   0.3247595   0.0000000), wk =   0.0017361
        k(  895) = (   0.3958333   0.3488158   0.0000000), wk =   0.0017361
        k(  896) = (   0.3958333   0.3728720   0.0000000), wk =   0.0017361
        k(  897) = (   0.3958333   0.3969283   0.0000000), wk =   0.0017361
        k(  898) = (   0.3958333   0.4209846   0.0000000), wk =   0.0017361
        k(  899) = (   0.3958333   0.4450408   0.0000000), wk =   0.0017361
        k(  900) = (   0.3958333   0.4690971   0.0000000), wk =   0.0017361
        k(  901) = (   0.3958333   0.4931534   0.0000000), wk =   0.0017361
        k(  902) = (   0.3958333   0.5172096   0.0000000), wk =   0.0017361
        k(  903) = (   0.3958333   0.5412659   0.0000000), wk =   0.0017361
        k(  904) = (   0.3958333   0.5653221   0.0000000), wk =   0.0017361
        k(  905) = (   0.3958333   0.5893784   0.0000000), wk =   0.0017361
        k(  906) = (   0.3958333   0.6134347   0.0000000), wk =   0.0017361
        k(  907) = (   0.3958333   0.6374909   0.0000000), wk =   0.0017361
        k(  908) = (   0.3958333   0.6615472   0.0000000), wk =   0.0017361
        k(  909) = (   0.3958333   0.6856034   0.0000000), wk =   0.0017361
        k(  910) = (   0.3958333   0.7096597   0.0000000), wk =   0.0017361
        k(  911) = (   0.3958333   0.7337160   0.0000000), wk =   0.0017361
        k(  912) = (   0.3958333   0.7577722   0.0000000), wk =   0.0017361
        k(  913) = (   0.3958333   0.7818285   0.0000000), wk =   0.0017361
        k(  914) = (   0.3958333  -0.3488158   0.0000000), wk =   0.0017361
        k(  915) = (   0.3958333  -0.3247595   0.0000000), wk =   0.0017361
        k(  916) = (   0.3958333  -0.3007033   0.0000000), wk =   0.0017361
        k(  917) = (   0.3958333  -0.2766470   0.0000000), wk =   0.0017361
        k(  918) = (   0.3958333  -0.2525907   0.0000000), wk =   0.0017361
        k(  919) = (   0.3958333  -0.2285345   0.0000000), wk =   0.0017361
        k(  920) = (   0.3958333  -0.2044782   0.0000000), wk =   0.0017361
        k(  921) = (   0.3958333  -0.1804220   0.0000000), wk =   0.0017361
        k(  922) = (   0.3958333  -0.1563657   0.0000000), wk =   0.0017361
        k(  923) = (   0.3958333  -0.1323094   0.0000000), wk =   0.0017361
        k(  924) = (   0.3958333  -0.1082532   0.0000000), wk =   0.0017361
        k(  925) = (   0.3958333  -0.0841969   0.0000000), wk =   0.0017361
        k(  926) = (   0.3958333  -0.0601407   0.0000000), wk =   0.0017361
        k(  927) = (   0.3958333  -0.0360844   0.0000000), wk =   0.0017361
        k(  928) = (   0.3958333  -0.0120281   0.0000000), wk =   0.0017361
        k(  929) = (   0.3958333   0.0120281   0.0000000), wk =   0.0017361
        k(  930) = (   0.3958333   0.0360844   0.0000000), wk =   0.0017361
        k(  931) = (   0.3958333   0.0601407   0.0000000), wk =   0.0017361
        k(  932) = (   0.3958333   0.0841969   0.0000000), wk =   0.0017361
        k(  933) = (   0.3958333   0.1082532   0.0000000), wk =   0.0017361
        k(  934) = (   0.3958333   0.1323094   0.0000000), wk =   0.0017361
        k(  935) = (   0.3958333   0.1563657   0.0000000), wk =   0.0017361
        k(  936) = (   0.3958333   0.1804220   0.0000000), wk =   0.0017361
        k(  937) = (   0.3958333   0.2044782   0.0000000), wk =   0.0017361
        k(  938) = (   0.4166667   0.2405626   0.0000000), wk =   0.0017361
        k(  939) = (   0.4166667   0.2646189   0.0000000), wk =   0.0017361
        k(  940) = (   0.4166667   0.2886751   0.0000000), wk =   0.0017361
        k(  941) = (   0.4166667   0.3127314   0.0000000), wk =   0.0017361
        k(  942) = (   0.4166667   0.3367877   0.0000000), wk =   0.0017361
        k(  943) = (   0.4166667   0.3608439   0.0000000), wk =   0.0017361
        k(  944) = (   0.4166667   0.3849002   0.0000000), wk =   0.0017361
        k(  945) = (   0.4166667   0.4089564   0.0000000), wk =   0.0017361
        k(  946) = (   0.4166667   0.4330127   0.0000000), wk =   0.0017361
        k(  947) = (   0.4166667   0.4570690   0.0000000), wk =   0.0017361
        k(  948) = (   0.4166667   0.4811252   0.0000000), wk =   0.0017361
        k(  949) = (   0.4166667   0.5051815   0.0000000), wk =   0.0017361
        k(  950) = (   0.4166667   0.5292377   0.0000000), wk =   0.0017361
        k(  951) = (   0.4166667   0.5532940   0.0000000), wk =   0.0017361
        k(  952) = (   0.4166667   0.5773503   0.0000000), wk =   0.0017361
        k(  953) = (   0.4166667   0.6014065   0.0000000), wk =   0.0017361
        k(  954) = (   0.4166667   0.6254628   0.0000000), wk =   0.0017361
        k(  955) = (   0.4166667   0.6495191   0.0000000), wk =   0.0017361
        k(  956) = (   0.4166667   0.6735753   0.0000000), wk =   0.0017361
        k(  957) = (   0.4166667   0.6976316   0.0000000), wk =   0.0017361
        k(  958) = (   0.4166667   0.7216878   0.0000000), wk =   0.0017361
        k(  959) = (   0.4166667   0.7457441   0.0000000), wk =   0.0017361
        k(  960) = (   0.4166667   0.7698004   0.0000000), wk =   0.0017361
        k(  961) = (   0.4166667   0.7938566   0.0000000), wk =   0.0017361
        k(  962) = (   0.4166667  -0.3367877   0.0000000), wk =   0.0017361
        k(  963) = (   0.4166667  -0.3127314   0.0000000), wk =   0.0017361
        k(  964) = (   0.4166667  -0.2886751   0.0000000), wk =   0.0017361
        k(  965) = (   0.4166667  -0.2646189   0.0000000), wk =   0.0017361
        k(  966) = (   0.4166667  -0.2405626   0.0000000), wk =   0.0017361
        k(  967) = (   0.4166667  -0.2165064   0.0000000), wk =   0.0017361
        k(  968) = (   0.4166667  -0.1924501   0.0000000), wk =   0.0017361
[...]
     1.0000   1.0000   1.0000   1.0000   1.0000   1.0000   1.0000   1.0000
     1.0000   1.0000   0.0000   0.0000   0.0000   0.0000   0.0000   0.0000
     0.0000   0.0000   0.0000   0.0000   0.0000   0.0000   0.0000   0.0000
     0.0000   0.0000   0.0000   0.0000

          k =-0.5000-0.2165 0.0000 ( 11472 PWs)   bands (ev):

   -74.8019 -48.3493 -48.3422 -48.3260 -48.3241 -48.3114 -39.1953 -39.0265
   -38.9494 -13.4121 -13.2992  -7.2536  -6.1800  -5.0824  -3.9529  -3.2167
    -2.2289  -1.3610   1.9265   2.3330   3.1195   3.4557   4.4424   6.5221
     6.8654   7.6017   8.1698   8.3617   8.6109   8.9795   9.2045   9.4088
     9.7232   9.8438  10.0645  10.4425

     occupation numbers 
     1.0000   1.0000   1.0000   1.0000   1.0000   1.0000   1.0000   1.0000
     1.0000   1.0000   1.0000   1.0000   1.0000   1.0000   1.0000   1.0000
     1.0000   1.0000   0.0000   0.0000   0.0000   0.0000   0.0000   0.0000
     0.0000   0.0000   0.0000   0.0000   0.0000   0.0000   0.0000   0.0000
     0.0000   0.0000   0.0000   0.0000

          k =-0.5000-0.1925 0.0000 ( 11472 PWs)   bands (ev):

   -74.8019 -48.3491 -48.3423 -48.3260 -48.3241 -48.3115 -39.1900 -39.0265
   -38.9550 -13.4177 -13.2980  -7.1772  -6.1580  -5.0639  -4.0151  -3.1879
    -2.4533  -1.3294   1.8322   2.3899   3.1356   3.3629   4.5574   6.5910
     7.0528   7.6967   8.0591   8.3352   8.5762   8.8767   9.1992   9.5179
     9.7096  10.0023  10.1676  10.5064

     occupation numbers 
     1.0000   1.0000   1.0000   1.0000   1.0000   1.0000   1.0000   1.0000
     1.0000   1.0000   1.0000   1.0000   1.0000   1.0000   1.0000   1.0000
     1.0000   1.0000   0.0000   0.0000   0.0000   0.0000   0.0000   0.0000
     0.0000   0.0000   0.0000   0.0000   0.0000   0.0000   0.0000   0.0000
     0.0000   0.0000   0.0000   0.0000

          k =-0.5000-0.1684 0.0000 ( 11466 PWs)   bands (ev):

   -74.8019 -48.3489 -48.3425 -48.3259 -48.3242 -48.3115 -39.1835 -39.0265
   -38.9617 -13.4241 -13.2965  -7.0831  -6.1308  -5.0417  -4.0884  -3.1522
    -2.6967  -1.3107   1.7290   2.4405   3.0395   3.3963   4.6953   6.6536
     7.2172   7.7776   7.9999   8.3216   8.5493   8.8022   9.1692   9.4668
     9.9008  10.1661  10.2695  10.6075

     occupation numbers 
     1.0000   1.0000   1.0000   1.0000   1.0000   1.0000   1.0000   1.0000
     1.0000   1.0000   1.0000   1.0000   1.0000   1.0000   1.0000   1.0000
     1.0000   1.0000   0.0000   0.0000   0.0000   0.0000   0.0000   0.0000
     0.0000   0.0000   0.0000   0.0000   0.0000   0.0000   0.0000   0.0000
     0.0000   0.0000   0.0000   0.0000

          k =-0.5000-0.1443 0.0000 ( 11455 PWs)   bands (ev):

   -74.8019 -48.3486 -48.3427 -48.3259 -48.3242 -48.3115 -39.1760 -39.0265
   -38.9695 -13.4309 -13.2949  -6.9747  -6.0997  -5.0166  -4.1678  -3.1130
    -2.9479  -1.3024   1.6232   2.4797   2.8964   3.4988   4.8488   6.7068
     7.3193   7.7677   8.0443   8.3213   8.4863   8.8216   9.1343   9.4720
    10.0848  10.2793  10.4203  10.7601

     occupation numbers 
     1.0000   1.0000   1.0000   1.0000   1.0000   1.0000   1.0000   1.0000
     1.0000   1.0000   1.0000   1.0000   1.0000   1.0000   1.0000   1.0000
     1.0000   1.0000   0.0000   0.0000   0.0000   0.0000   0.0000   0.0000
     0.0000   0.0000   0.0000   0.0000   0.0000   0.0000   0.0000   0.0000
     0.0000   0.0000   0.0000   0.0000

          k =-0.5000-0.1203 0.0000 ( 11456 PWs)   bands (ev):

   -74.8019 -48.3484 -48.3429 -48.3258 -48.3243 -48.3115 -39.1679 -39.0265
   -38.9778 -13.4377 -13.2934  -6.8569  -6.0660  -4.9899  -4.2472  -3.2077
    -3.0626  -1.3017   1.5216   2.5002   2.7642   3.6193   5.0104   6.7505
     7.3512   7.7095   8.0882   8.2487   8.5261   8.8766   9.1474   9.5756
    10.1775  10.3802  10.6346  10.9673

     occupation numbers 
     1.0000   1.0000   1.0000   1.0000   1.0000   1.0000   1.0000   1.0000
     1.0000   1.0000   1.0000   1.0000   1.0000   1.0000   1.0000   1.0000
     1.0000   1.0000   0.0000   0.0000   0.0000   0.0000   0.0000   0.0000
     0.0000   0.0000   0.0000   0.0000   0.0000   0.0000   0.0000   0.0000
     0.0000   0.0000   0.0000   0.0000

          k =-0.5000-0.0962 0.0000 ( 11462 PWs)   bands (ev):

   -74.8019 -48.3481 -48.3432 -48.3257 -48.3243 -48.3116 -39.1597 -39.0265
   -38.9863 -13.4439 -13.2920  -6.7365  -6.0319  -4.9631  -4.3196  -3.4484
    -3.0221  -1.3063   1.4300   2.4841   2.6758   3.7398   5.1720   6.7863
     7.3321   7.6490   8.0543   8.1395   8.6699   8.8928   9.2405   9.7698
    10.2210  10.4717  10.8916  11.1974

     occupation numbers 
     1.0000   1.0000   1.0000   1.0000   1.0000   1.0000   1.0000   1.0000
     1.0000   1.0000   1.0000   1.0000   1.0000   1.0000   1.0000   1.0000
     1.0000   1.0000   0.0000   0.0000   0.0000   0.0000   0.0000   0.0000
     0.0000   0.0000   0.0000   0.0000   0.0000   0.0000   0.0000   0.0000
     0.0000   0.0000   0.0000   0.0000

          k =-0.5000-0.0722 0.0000 ( 11462 PWs)   bands (ev):

   -74.8019 -48.3479 -48.3434 -48.3257 -48.3244 -48.3116 -39.1519 -39.0265
   -38.9943 -13.4493 -13.2907  -6.6226  -6.0000  -4.9384  -4.3774  -3.6696
    -2.9840  -1.3134   1.3538   2.4243   2.6464   3.8477   5.3242   6.8156
     7.2807   7.5944   7.9416   8.1065   8.7691   8.9095   9.3917   9.9815
    10.2730  10.5786  11.1379  11.3956

     occupation numbers 
     1.0000   1.0000   1.0000   1.0000   1.0000   1.0000   1.0000   1.0000
     1.0000   1.0000   1.0000   1.0000   1.0000   1.0000   1.0000   1.0000
     1.0000   1.0000   0.0000   0.0000   0.0000   0.0000   0.0000   0.0000
     0.0000   0.0000   0.0000   0.0000   0.0000   0.0000   0.0000   0.0000
     0.0000   0.0000   0.0000   0.0000

          k =-0.5000-0.0481 0.0000 ( 11471 PWs)   bands (ev):

   -74.8019 -48.3477 -48.3436 -48.3256 -48.3245 -48.3116 -39.1454 -39.0265
   -39.0010 -13.4533 -13.2898  -6.5267  -5.9736  -4.9183  -4.4137  -3.8559
    -2.9534  -1.3208   1.2968   2.3591   2.6438   3.9328   5.4544   6.8384
     7.2125   7.5506   7.8482   8.0917   8.7917   8.9491   9.5562  10.1205
    10.3517  10.7374  11.3032  11.5377

     occupation numbers 
     1.0000   1.0000   1.0000   1.0000   1.0000   1.0000   1.0000   1.0000
     1.0000   1.0000   1.0000   1.0000   1.0000   1.0000   1.0000   1.0000
     1.0000   1.0000   0.0000   0.0000   0.0000   0.0000   0.0000   0.0000
     0.0000   0.0000   0.0000   0.0000   0.0000   0.0000   0.0000   0.0000
     0.0000   0.0000   0.0000   0.0000

          k =-0.5000-0.0241 0.0000 ( 11469 PWs)   bands (ev):

   -74.8019 -48.3475 -48.3437 -48.3256 -48.3245 -48.3116 -39.1409 -39.0265
   -39.0056 -13.4559 -13.2892  -6.4617  -5.9559  -4.9055  -4.4267  -3.9874
    -2.9336  -1.3263   1.2616   2.3145   2.6460   3.9873   5.5455   6.8541
     7.1505   7.5227   7.7944   8.0834   8.7901   8.9792   9.6700  10.1977
    10.4231  10.8872  11.4058  11.6714

     occupation numbers 
     1.0000   1.0000   1.0000   1.0000   1.0000   1.0000   1.0000   1.0000
     1.0000   1.0000   1.0000   1.0000   1.0000   1.0000   1.0000   1.0000
     1.0000   1.0000   0.0000   0.0000   0.0000   0.0000   0.0000   0.0000
     0.0000   0.0000   0.0000   0.0000   0.0000   0.0000   0.0000   0.0000
     0.0000   0.0000   0.0000   0.0000

          k =-0.5000 0.0000 0.0000 ( 11491 PWs)   bands (ev):

   -74.8019 -48.3475 -48.3438 -48.3256 -48.3245 -48.3117 -39.1393 -39.0265
   -39.0072 -13.4568 -13.2890  -6.4386  -5.9497  -4.9011  -4.4274  -4.0368
    -2.9267  -1.3283   1.2497   2.2990   2.6471   4.0060   5.5787   6.8600
     7.1249   7.5134   7.7772   8.0807   8.7882   8.9894   9.7068  10.2259
    10.4565  10.9369  11.4678  11.7395

     occupation numbers 
     1.0000   1.0000   1.0000   1.0000   1.0000   1.0000   1.0000   1.0000
     1.0000   1.0000   1.0000   1.0000   1.0000   1.0000   1.0000   1.0000
     1.0000   1.0000   0.0000   0.0000   0.0000   0.0000   0.0000   0.0000
     0.0000   0.0000   0.0000   0.0000   0.0000   0.0000   0.0000   0.0000
     0.0000   0.0000   0.0000   0.0000

          k =-0.5000 0.0241 0.0000 ( 11469 PWs)   bands (ev):

   -74.8019 -48.3475 -48.3437 -48.3256 -48.3245 -48.3116 -39.1409 -39.0265
   -39.0056 -13.4559 -13.2892  -6.4617  -5.9559  -4.9055  -4.4267  -3.9874
    -2.9336  -1.3263   1.2616   2.3145   2.6460   3.9873   5.5455   6.8541
     7.1505   7.5227   7.7944   8.0834   8.7901   8.9792   9.6700  10.1977
    10.4231  10.8872  11.4058  11.6714

     occupation numbers 
     1.0000   1.0000   1.0000   1.0000   1.0000   1.0000   1.0000   1.0000
     1.0000   1.0000   1.0000   1.0000   1.0000   1.0000   1.0000   1.0000
     1.0000   1.0000   0.0000   0.0000   0.0000   0.0000   0.0000   0.0000
     0.0000   0.0000   0.0000   0.0000   0.0000   0.0000   0.0000   0.0000
     0.0000   0.0000   0.0000   0.0000

          k =-0.5000 0.0481 0.0000 ( 11471 PWs)   bands (ev):

   -74.8019 -48.3477 -48.3436 -48.3256 -48.3245 -48.3116 -39.1454 -39.0265
   -39.0010 -13.4533 -13.2898  -6.5267  -5.9736  -4.9183  -4.4137  -3.8559
    -2.9534  -1.3208   1.2968   2.3591   2.6438   3.9328   5.4544   6.8384
     7.2125   7.5506   7.8482   8.0917   8.7917   8.9491   9.5562  10.1205
    10.3517  10.7374  11.3032  11.5377

     occupation numbers 
     1.0000   1.0000   1.0000   1.0000   1.0000   1.0000   1.0000   1.0000
     1.0000   1.0000   1.0000   1.0000   1.0000   1.0000   1.0000   1.0000
     1.0000   1.0000   0.0000   0.0000   0.0000   0.0000   0.0000   0.0000
     0.0000   0.0000   0.0000   0.0000   0.0000   0.0000   0.0000   0.0000
     0.0000   0.0000   0.0000   0.0000

          k =-0.5000 0.0722 0.0000 ( 11462 PWs)   bands (ev):

   -74.8019 -48.3479 -48.3434 -48.3257 -48.3244 -48.3116 -39.1519 -39.0265
   -38.9943 -13.4493 -13.2907  -6.6226  -6.0000  -4.9384  -4.3774  -3.6696
    -2.9840  -1.3134   1.3538   2.4243   2.6464   3.8477   5.3242   6.8156
     7.2807   7.5944   7.9416   8.1065   8.7691   8.9095   9.3917   9.9815
    10.2730  10.5786  11.1379  11.3956

     occupation numbers 
     1.0000   1.0000   1.0000   1.0000   1.0000   1.0000   1.0000   1.0000
     1.0000   1.0000   1.0000   1.0000   1.0000   1.0000   1.0000   1.0000
     1.0000   1.0000   0.0000   0.0000   0.0000   0.0000   0.0000   0.0000
     0.0000   0.0000   0.0000   0.0000   0.0000   0.0000   0.0000   0.0000
     0.0000   0.0000   0.0000   0.0000

          k =-0.5000 0.0962 0.0000 ( 11462 PWs)   bands (ev):

   -74.8019 -48.3481 -48.3432 -48.3257 -48.3243 -48.3116 -39.1597 -39.0265
   -38.9863 -13.4439 -13.2920  -6.7365  -6.0319  -4.9631  -4.3196  -3.4484
    -3.0221  -1.3063   1.4300   2.4841   2.6758   3.7398   5.1720   6.7863
     7.3321   7.6490   8.0543   8.1395   8.6699   8.8928   9.2405   9.7698
    10.2210  10.4717  10.8916  11.1974

     occupation numbers 
     1.0000   1.0000   1.0000   1.0000   1.0000   1.0000   1.0000   1.0000
     1.0000   1.0000   1.0000   1.0000   1.0000   1.0000   1.0000   1.0000
     1.0000   1.0000   0.0000   0.0000   0.0000   0.0000   0.0000   0.0000
     0.0000   0.0000   0.0000   0.0000   0.0000   0.0000   0.0000   0.0000
     0.0000   0.0000   0.0000   0.0000

          k =-0.5000 0.1203 0.0000 ( 11456 PWs)   bands (ev):

   -74.8019 -48.3484 -48.3429 -48.3258 -48.3243 -48.3115 -39.1679 -39.0265
   -38.9778 -13.4377 -13.2934  -6.8569  -6.0660  -4.9899  -4.2472  -3.2077
    -3.0626  -1.3017   1.5216   2.5002   2.7642   3.6193   5.0104   6.7505
     7.3512   7.7095   8.0882   8.2487   8.5261   8.8766   9.1474   9.5756
    10.1775  10.3802  10.6346  10.9673

     occupation numbers 
     1.0000   1.0000   1.0000   1.0000   1.0000   1.0000   1.0000   1.0000
     1.0000   1.0000   1.0000   1.0000   1.0000   1.0000   1.0000   1.0000
     1.0000   1.0000   0.0000   0.0000   0.0000   0.0000   0.0000   0.0000
     0.0000   0.0000   0.0000   0.0000   0.0000   0.0000   0.0000   0.0000
     0.0000   0.0000   0.0000   0.0000

          k =-0.5000 0.1443 0.0000 ( 11455 PWs)   bands (ev):

   -74.8019 -48.3486 -48.3427 -48.3259 -48.3242 -48.3115 -39.1760 -39.0265
   -38.9695 -13.4309 -13.2949  -6.9747  -6.0997  -5.0166  -4.1678  -3.1130
    -2.9479  -1.3024   1.6232   2.4797   2.8964   3.4988   4.8488   6.7068
     7.3193   7.7677   8.0443   8.3213   8.4863   8.8216   9.1343   9.4720
    10.0848  10.2793  10.4203  10.7601

     occupation numbers 
     1.0000   1.0000   1.0000   1.0000   1.0000   1.0000   1.0000   1.0000
     1.0000   1.0000   1.0000   1.0000   1.0000   1.0000   1.0000   1.0000
     1.0000   1.0000   0.0000   0.0000   0.0000   0.0000   0.0000   0.0000
     0.0000   0.0000   0.0000   0.0000   0.0000   0.0000   0.0000   0.0000
     0.0000   0.0000   0.0000   0.0000

          k =-0.5000 0.1684 0.0000 ( 11466 PWs)   bands (ev):

   -74.8019 -48.3489 -48.3425 -48.3259 -48.3242 -48.3115 -39.1835 -39.0265
   -38.9617 -13.4241 -13.2965  -7.0831  -6.1308  -5.0417  -4.0884  -3.1522
    -2.6967  -1.3107   1.7290   2.4405   3.0395   3.3963   4.6953   6.6536
     7.2172   7.7776   7.9999   8.3216   8.5493   8.8022   9.1692   9.4668
     9.9008  10.1661  10.2695  10.6075

     occupation numbers 
     1.0000   1.0000   1.0000   1.0000   1.0000   1.0000   1.0000   1.0000
     1.0000   1.0000   1.0000   1.0000   1.0000   1.0000   1.0000   1.0000
     1.0000   1.0000   0.0000   0.0000   0.0000   0.0000   0.0000   0.0000
     0.0000   0.0000   0.0000   0.0000   0.0000   0.0000   0.0000   0.0000
     0.0000   0.0000   0.0000   0.0000

          k =-0.5000 0.1925 0.0000 ( 11472 PWs)   bands (ev):

   -74.8019 -48.3491 -48.3423 -48.3260 -48.3241 -48.3115 -39.1900 -39.0265
   -38.9550 -13.4177 -13.2980  -7.1772  -6.1580  -5.0639  -4.0151  -3.1879
    -2.4533  -1.3294   1.8322   2.3899   3.1356   3.3629   4.5574   6.5910
     7.0528   7.6967   8.0591   8.3352   8.5762   8.8767   9.1992   9.5179
     9.7096  10.0023  10.1676  10.5064

     occupation numbers 
     1.0000   1.0000   1.0000   1.0000   1.0000   1.0000   1.0000   1.0000
     1.0000   1.0000   1.0000   1.0000   1.0000   1.0000   1.0000   1.0000
     1.0000   1.0000   0.0000   0.0000   0.0000   0.0000   0.0000   0.0000
     0.0000   0.0000   0.0000   0.0000   0.0000   0.0000   0.0000   0.0000
     0.0000   0.0000   0.0000   0.0000

          k =-0.5000 0.2165 0.0000 ( 11472 PWs)   bands (ev):

   -74.8019 -48.3493 -48.3422 -48.3260 -48.3241 -48.3114 -39.1953 -39.0265
   -38.9494 -13.4121 -13.2992  -7.2536  -6.1800  -5.0824  -3.9529  -3.2167
    -2.2289  -1.3610   1.9265   2.3330   3.1195   3.4557   4.4424   6.5221
     6.8654   7.6017   8.1698   8.3617   8.6109   8.9795   9.2045   9.4088
     9.7232   9.8438  10.0645  10.4425

     occupation numbers 
     1.0000   1.0000   1.0000   1.0000   1.0000   1.0000   1.0000   1.0000
     1.0000   1.0000   1.0000   1.0000   1.0000   1.0000   1.0000   1.0000
     1.0000   1.0000   0.0000   0.0000   0.0000   0.0000   0.0000   0.0000
     0.0000   0.0000   0.0000   0.0000   0.0000   0.0000   0.0000   0.0000
     0.0000   0.0000   0.0000   0.0000

          k =-0.5000 0.2406 0.0000 ( 11466 PWs)   bands (ev):

   -74.8019 -48.3494 -48.3421 -48.3261 -48.3240 -48.3114 -39.1992 -39.0265
   -38.9453 -13.4078 -13.3002  -7.3098  -6.1962  -5.0961  -3.9060  -3.2374
    -2.0347  -1.4063   2.0073   2.2751   3.0752   3.5772   4.3561   6.4547
     6.6998   7.5280   8.2965   8.3970   8.6652   9.0345   9.1908   9.2675
     9.6832   9.7868  10.0393  10.4036

     occupation numbers 
     1.0000   1.0000   1.0000   1.0000   1.0000   1.0000   1.0000   1.0000
     1.0000   1.0000   1.0000   1.0000   1.0000   1.0000   1.0000   1.0000
     1.0000   1.0000   0.0000   0.0000   0.0000   0.0000   0.0000   0.0000
     0.0000   0.0000   0.0000   0.0000   0.0000   0.0000   0.0000   0.0000
     0.0000   0.0000   0.0000   0.0000

          k =-0.5000 0.2646 0.0000 ( 11454 PWs)   bands (ev):

   -74.8019 -48.3494 -48.3420 -48.3261 -48.3240 -48.3114 -39.2017 -39.0265
   -38.9428 -13.4051 -13.3008  -7.3442  -6.2061  -5.1046  -3.8769  -3.2497
    -1.8876  -1.4589   2.0714   2.2225   3.0444   3.6667   4.3029   6.4007
     6.5907   7.4832   8.3876   8.4634   8.7250   8.9294   9.1741   9.2870
     9.6032   9.6904  10.1254  10.3808

     occupation numbers 
     1.0000   1.0000   1.0000   1.0000   1.0000   1.0000   1.0000   1.0000
     1.0000   1.0000   1.0000   1.0000   1.0000   1.0000   1.0000   1.0000
     1.0000   1.0000   0.0000   0.0000   0.0000   0.0000   0.0000   0.0000
     0.0000   0.0000   0.0000   0.0000   0.0000   0.0000   0.0000   0.0000
     0.0000   0.0000   0.0000   0.0000

          k =-0.5000-0.8660 0.0000 ( 11424 PWs)   bands (ev):

   -74.8019 -48.3494 -48.3419 -48.3261 -48.3239 -48.3114 -39.2025 -39.0265
   -38.9420 -13.4042 -13.3010  -7.3557  -6.2094  -5.1075  -3.8671  -3.2537
    -1.8262  -1.4880   2.1036   2.1936   3.0339   3.6995   4.2849   6.3787
     6.5538   7.4683   8.4055   8.5293   8.7605   8.8409   9.1493   9.3471
     9.5585   9.6404  10.1646  10.3743

     occupation numbers 
     1.0000   1.0000   1.0000   1.0000   1.0000   1.0000   1.0000   1.0000
     1.0000   1.0000   1.0000   1.0000   1.0000   1.0000   1.0000   1.0000
     1.0000   1.0000   0.0000   0.0000   0.0000   0.0000   0.0000   0.0000
     0.0000   0.0000   0.0000   0.0000   0.0000   0.0000   0.0000   0.0000
     0.0000   0.0000   0.0000   0.0000

     the Fermi energy is     0.4245 ev
     (compare with:    -0.8682 eV, computed in scf)

     Writing all to output data dir ./work/WSSe.save/

     init_run     :      1.33s CPU      1.60s WALL (       1 calls)
     electrons    :   4918.52s CPU   5159.33s WALL (       1 calls)

     Called by init_run:
     wfcinit      :      0.00s CPU      0.00s WALL (       1 calls)
     wfcinit:atom :      0.79s CPU      0.90s WALL (    1154 calls)
     wfcinit:wfcr :    123.30s CPU    143.00s WALL (    1154 calls)
     potinit      :      0.20s CPU      0.22s WALL (       1 calls)
     hinit0       :      0.80s CPU      0.85s WALL (       1 calls)

     Called by electrons:
     c_bands      :   4918.43s CPU   5158.97s WALL (       1 calls)
     v_of_rho     :      0.03s CPU      0.03s WALL (       1 calls)
     v_h          :      0.00s CPU      0.00s WALL (       1 calls)
     v_xc         :      0.02s CPU      0.03s WALL (       1 calls)
     newd         :      0.15s CPU      0.20s WALL (       1 calls)
     PAW_pot      :      0.16s CPU      0.18s WALL (       1 calls)

     Called by c_bands:
     init_us_2    :      1.39s CPU      1.80s WALL (    1154 calls)
     init_us_2:cp :      1.38s CPU      1.79s WALL (    1154 calls)
     cegterg      :   4780.58s CPU   4998.40s WALL (    3565 calls)

     Called by sum_band:

     Called by *egterg:
     cdiaghg      :    221.96s CPU    225.88s WALL (   61832 calls)
     cegterg:over :    761.31s CPU    776.59s WALL (   60678 calls)
     cegterg:upda :    315.20s CPU    320.29s WALL (   60678 calls)
     cegterg:last :    843.23s CPU    855.47s WALL (   29241 calls)
     h_psi        :   2086.96s CPU   2279.82s WALL (   65397 calls)
     s_psi        :    229.18s CPU    233.76s WALL (   65397 calls)
     g_psi        :      6.55s CPU      6.72s WALL (   60678 calls)

     Called by h_psi:
     h_psi:calbec :    341.12s CPU    357.80s WALL (   65397 calls)
     vloc_psi     :   1492.36s CPU   1663.32s WALL (   65397 calls)
     add_vuspsi   :    238.78s CPU    243.86s WALL (   65397 calls)

     General routines
     calbec       :    340.59s CPU    357.45s WALL (   65397 calls)
     fft          :      0.37s CPU      0.38s WALL (      12 calls)
     fftw         :   1379.69s CPU   1537.58s WALL ( 2116008 calls)
     davcio       :      1.53s CPU      2.31s WALL (    2308 calls)

     Parallel routines

     PAW routines
     PAW_pot      :      0.16s CPU      0.18s WALL (       1 calls)

     PWSCF        :      1h22m CPU      1h26m WALL


   This run was terminated on:  17:15: 6  30Jan2023            

=------------------------------------------------------------------------------=
   JOB DONE.
=------------------------------------------------------------------------------=
